LAMMPS (15 Jun 2023)
OMP_NUM_THREADS environment is not set. Defaulting to 1 thread. (src/comm.cpp:98)
  using 1 OpenMP thread(s) per MPI task
Loaded 1 plugins from D:\Program Files (x86)\LAMMPS 64-bit 15Jun2023\plugins
# Compute elastic constant tensor for a crystal
#
# Written by Aidan Thompson (Sandia, athomps@sandia.gov)
#
#  This script uses the following three include files.
#
#   init.mod      (must be modified for different crystal structures)
# 	       	  Define units, deformation parameters and initial
#		  configuration of the atoms and simulation cell.
#
#
#   potential.mod    (must be modified for different pair styles)
# 		     Define pair style and other attributes
#		     not stored in restart file
#
#
#   displace.mod    (displace.mod should not need to be modified)
# 		    Perform positive and negative box displacements
# 		    in direction ${dir} and size ${up}.
# 		    It uses the resultant changes
#		    in stress to compute one
# 		    row of the elastic stiffness tensor
#
#		    Inputs variables:
#		    	   dir = the Voigt deformation component
#		    		    (1,2,3,4,5,6)
#		    Global constants:
#       	    	   up = the deformation magnitude (strain units)
#       		   cfac = conversion from LAMMPS pressure units to
#               	   output units for elastic constants
#
#
#  To run this on a different system, it should only be necessary to
#  modify the files init.mod and potential.mod. In order to calculate
#  the elastic constants correctly, care must be taken to specify
#  the correct units in init.mod (units, cfac and cunits). It is also
#  important to verify that the minimization of energy w.r.t atom
#  positions in the deformed cell is fully converged.
#  One indication of this is that the elastic constants are insensitive
#  to the choice of the variable ${up} in init.mod. Another is to check
#  the final max and two-norm forces reported in the log file. If you know
#  that minimization is not required, you can set maxiter = 0.0 in
#  init.mod.
#
clear
OMP_NUM_THREADS environment is not set. Defaulting to 1 thread. (src/comm.cpp:98)
  using 1 OpenMP thread(s) per MPI task
Loaded 1 plugins from D:\Program Files (x86)\LAMMPS 64-bit 15Jun2023\plugins
include ../elastic_constant/init.mod
# NOTE: This script can be modified for different atomic structures,
# units, etc. See in.elastic for more info.
#

# Define the finite deformation size. Try several values of this
# variable to verify that results do not depend on it.
variable up equal 1.0e-6

# Define the amount of random jiggle for atoms
# This prevents atoms from staying on saddle points
variable atomjiggle equal 1.0e-5

# Uncomment one of these blocks, depending on what units
# you are using in LAMMPS and for output

# metal units, elastic constants in eV/A^3
#units		metal
#variable cfac equal 6.2414e-7
#variable cunits string eV/A^3

# metal units, elastic constants in GPa
units		metal
variable cfac equal 1.0e-4
variable cunits string GPa

# real units, elastic constants in GPa
#units		real
#variable cfac equal 1.01325e-4
#variable cunits string GPa

# Define minimization parameters
variable etol equal 0.0
variable ftol equal 1.0e-10
variable maxiter equal 100
variable maxeval equal 1000
variable dmax equal 1.0e-2

# generate the box and atom positions using a diamond lattice
variable a equal 3.028

boundary	p p p

lattice         bcc $a
lattice         bcc 3.028
Lattice spacing in x,y,z = 3.028 3.028 3.028
region		box block 0 4 0 4 0 4 units lattice
create_box	1 box
Created orthogonal box = (0 0 0) to (12.112 12.112 12.112)
  1 by 1 by 1 MPI processor grid
create_atoms	1 box
Created 128 atoms
  using lattice units in orthogonal box = (0 0 0) to (12.112 12.112 12.112)
  create_atoms CPU = 0.000 seconds
change_box all triclinic
Changing box ...
  triclinic box = (0 0 0) to (12.112 12.112 12.112) with tilt (0 0 0)

# Need to set mass to something, just to satisfy LAMMPS
mass 1 1.0e-20

include ../elastic_constant/potential.mod
# NOTE: This script can be modified for different pair styles
# See in.elastic for more info.

# Choose potential
pair_style	eam/alloy
pair_coeff * * ../V.eam.alloy V
Reading eam/alloy potential file ../V.eam.alloy with DATE: 2025-04-20

# Setup neighbor style
neighbor 1.0 nsq
neigh_modify once no every 1 delay 0 check yes

# Setup minimization style
min_style	     cg
min_modify	     dmax ${dmax} line quadratic
min_modify	     dmax 0.01 line quadratic

# Setup output
thermo		1
thermo_style custom step temp pe press pxx pyy pzz pxy pxz pyz lx ly lz vol
thermo_modify norm no

# Compute initial state
fix 3 all box/relax  aniso 0.0
minimize ${etol} ${ftol} ${maxiter} ${maxeval}
minimize 0 ${ftol} ${maxiter} ${maxeval}
minimize 0 1e-10 ${maxiter} ${maxeval}
minimize 0 1e-10 100 ${maxeval}
minimize 0 1e-10 100 1000
Neighbor list info ...
  update: every = 1 steps, delay = 0 steps, check = yes
  max neighbors/atom: 2000, page size: 100000
  master list distance cutoff = 5.7908507
  ghost atom cutoff = 5.7908507
  1 neighbor lists, perpetual/occasional/extra = 1 0 0
  (1) pair eam/alloy, perpetual
      attributes: half, newton on
      pair build: half/nsq/newton
      stencil: none
      bin: none
WARNING: Energy due to 3 extra global DOFs will be included in minimizer energies
 (src/min.cpp:225)
Per MPI rank memory allocation (min/avg/max) = 4.444 | 4.444 | 4.444 Mbytes
   Step          Temp          PotEng         Press           Pxx            Pyy            Pzz            Pxy            Pxz            Pyz             Lx             Ly             Lz           Volume    
         0   0             -679.68127     -517.65835     -517.65835     -517.65835     -517.65835     -5.9752543e-12 -1.8989421e-11  3.8743736e-11  12.112         12.112         12.112         1776.837     
         1   0             -679.68137     -46.77118      -46.77118      -46.77118      -46.77118      -1.4107083e-11 -1.0940187e-11 -7.2843307e-12  12.110789      12.110789      12.110789      1776.304     
         2   0             -679.68137     -0.019143185   -0.019143185   -0.019143185   -0.019143185   -1.7424707e-11  2.6036918e-12 -1.3652952e-11  12.110669      12.110669      12.110669      1776.2511    
         3   0             -679.68137     -1.8451896e-06 -1.84519e-06   -1.8451905e-06 -1.8451884e-06  1.0083047e-11  4.3812122e-14 -8.6117419e-11  12.110669      12.110669      12.110669      1776.2511    
         4   0             -679.68137      2.1913832e-10  2.0613447e-10  2.211589e-10   2.301216e-10  -1.0765264e-12 -2.0604215e-11  1.5817741e-11  12.110669      12.110669      12.110669      1776.2511    
Loop time of 0.000844 on 1 procs for 4 steps with 128 atoms

0.0% CPU use with 1 MPI tasks x 1 OpenMP threads

Minimization stats:
  Stopping criterion = force tolerance
  Energy initial, next-to-last, final = 
     -679.681271471127  -679.681366147612  -679.681366147628
  Force two-norm initial, final = 0.99435412 4.404018e-13
  Force max component initial, final = 0.57409062 2.5515209e-13
  Final line search alpha, max atom move = 1 2.5515209e-13
  Iterations, force evaluations = 4 7

MPI task timing breakdown:
Section |  min time  |  avg time  |  max time  |%varavg| %total
---------------------------------------------------------------
Pair    | 0.000414   | 0.000414   | 0.000414   |   0.0 | 49.05
Neigh   | 0          | 0          | 0          |   0.0 |  0.00
Comm    | 1.6e-05    | 1.6e-05    | 1.6e-05    |   0.0 |  1.90
Output  | 0.0002     | 0.0002     | 0.0002     |   0.0 | 23.70
Modify  | 0          | 0          | 0          |   0.0 |  0.00
Other   |            | 0.000214   |            |       | 25.36

Nlocal:            128 ave         128 max         128 min
Histogram: 1 0 0 0 0 0 0 0 0 0
Nghost:            727 ave         727 max         727 min
Histogram: 1 0 0 0 0 0 0 0 0 0
Neighs:           3712 ave        3712 max        3712 min
Histogram: 1 0 0 0 0 0 0 0 0 0

Total # of neighbors = 3712
Ave neighs/atom = 29
Neighbor list builds = 0
Dangerous builds = 0

variable tmp equal pxx
variable pxx0 equal ${tmp}
variable pxx0 equal 2.06134468180891e-10
variable tmp equal pyy
variable pyy0 equal ${tmp}
variable pyy0 equal 2.21158896508744e-10
variable tmp equal pzz
variable pzz0 equal ${tmp}
variable pzz0 equal 2.3012160484675e-10
variable tmp equal pyz
variable pyz0 equal ${tmp}
variable pyz0 equal 1.58177406754367e-11
variable tmp equal pxz
variable pxz0 equal ${tmp}
variable pxz0 equal -2.06042149781531e-11
variable tmp equal pxy
variable pxy0 equal ${tmp}
variable pxy0 equal -1.07652642048674e-12

variable tmp equal lx
variable lx0 equal ${tmp}
variable lx0 equal 12.1106685832227
variable tmp equal ly
variable ly0 equal ${tmp}
variable ly0 equal 12.1106685832227
variable tmp equal lz
variable lz0 equal ${tmp}
variable lz0 equal 12.1106685832227

# These formulas define the derivatives w.r.t. strain components
# Constants uses $, variables use v_
variable d1 equal -(v_pxx1-${pxx0})/(v_delta/v_len0)*${cfac}
variable d1 equal -(v_pxx1-2.06134468180891e-10)/(v_delta/v_len0)*${cfac}
variable d1 equal -(v_pxx1-2.06134468180891e-10)/(v_delta/v_len0)*0.0001
variable d2 equal -(v_pyy1-${pyy0})/(v_delta/v_len0)*${cfac}
variable d2 equal -(v_pyy1-2.21158896508744e-10)/(v_delta/v_len0)*${cfac}
variable d2 equal -(v_pyy1-2.21158896508744e-10)/(v_delta/v_len0)*0.0001
variable d3 equal -(v_pzz1-${pzz0})/(v_delta/v_len0)*${cfac}
variable d3 equal -(v_pzz1-2.3012160484675e-10)/(v_delta/v_len0)*${cfac}
variable d3 equal -(v_pzz1-2.3012160484675e-10)/(v_delta/v_len0)*0.0001
variable d4 equal -(v_pyz1-${pyz0})/(v_delta/v_len0)*${cfac}
variable d4 equal -(v_pyz1-1.58177406754367e-11)/(v_delta/v_len0)*${cfac}
variable d4 equal -(v_pyz1-1.58177406754367e-11)/(v_delta/v_len0)*0.0001
variable d5 equal -(v_pxz1-${pxz0})/(v_delta/v_len0)*${cfac}
variable d5 equal -(v_pxz1--2.06042149781531e-11)/(v_delta/v_len0)*${cfac}
variable d5 equal -(v_pxz1--2.06042149781531e-11)/(v_delta/v_len0)*0.0001
variable d6 equal -(v_pxy1-${pxy0})/(v_delta/v_len0)*${cfac}
variable d6 equal -(v_pxy1--1.07652642048674e-12)/(v_delta/v_len0)*${cfac}
variable d6 equal -(v_pxy1--1.07652642048674e-12)/(v_delta/v_len0)*0.0001

displace_atoms all random ${atomjiggle} ${atomjiggle} ${atomjiggle} 87287 units box
displace_atoms all random 1e-05 ${atomjiggle} ${atomjiggle} 87287 units box
displace_atoms all random 1e-05 1e-05 ${atomjiggle} 87287 units box
displace_atoms all random 1e-05 1e-05 1e-05 87287 units box
Displacing atoms ...

# Write restart
unfix 3
write_restart ../elastic_constant/restart.equil
System init for write_restart ...

# uxx Perturbation

variable dir equal 1
include ../elastic_constant/displace.mod
# NOTE: This script should not need to be
# modified. See in.elastic for more info.
#
# Find which reference length to use

if "${dir} == 1" then    "variable len0 equal ${lx0}"
variable len0 equal ${lx0}
variable len0 equal 12.1106685832227
if "${dir} == 2" then    "variable len0 equal ${ly0}"
if "${dir} == 3" then    "variable len0 equal ${lz0}"
if "${dir} == 4" then    "variable len0 equal ${lz0}"
if "${dir} == 5" then    "variable len0 equal ${lz0}"
if "${dir} == 6" then    "variable len0 equal ${ly0}"

# Reset box and simulation parameters

clear
OMP_NUM_THREADS environment is not set. Defaulting to 1 thread. (src/comm.cpp:98)
  using 1 OpenMP thread(s) per MPI task
Loaded 1 plugins from D:\Program Files (x86)\LAMMPS 64-bit 15Jun2023\plugins
box tilt large

The 'box' command has been removed and will be ignored

read_restart ../elastic_constant/restart.equil
Reading restart file ...
  restart file = 15 Jun 2023, LAMMPS = 15 Jun 2023
  restoring atom style atomic from restart
  triclinic box = (0.00066570839 0.00066570839 0.00066570839) to (12.111334 12.111334 12.111334) with tilt (0 0 0)
  1 by 1 by 1 MPI processor grid
  pair style eam/alloy stores no restart info
  128 atoms
  read_restart CPU = 0.001 seconds
include ../elastic_constant/potential.mod
# NOTE: This script can be modified for different pair styles
# See in.elastic for more info.

# Choose potential
pair_style	eam/alloy
pair_coeff * * ../V.eam.alloy V
Reading eam/alloy potential file ../V.eam.alloy with DATE: 2025-04-20

# Setup neighbor style
neighbor 1.0 nsq
neigh_modify once no every 1 delay 0 check yes

# Setup minimization style
min_style	     cg
min_modify	     dmax ${dmax} line quadratic
min_modify	     dmax 0.01 line quadratic

# Setup output
thermo		1
thermo_style custom step temp pe press pxx pyy pzz pxy pxz pyz lx ly lz vol
thermo_modify norm no

# Negative deformation

variable delta equal -${up}*${len0}
variable delta equal -1e-06*${len0}
variable delta equal -1e-06*12.1106685832227
variable deltaxy equal -${up}*xy
variable deltaxy equal -1e-06*xy
variable deltaxz equal -${up}*xz
variable deltaxz equal -1e-06*xz
variable deltayz equal -${up}*yz
variable deltayz equal -1e-06*yz
if "${dir} == 1" then    "change_box all x delta 0 ${delta} xy delta ${deltaxy} xz delta ${deltaxz} remap units box"
change_box all x delta 0 ${delta} xy delta ${deltaxy} xz delta ${deltaxz} remap units box
change_box all x delta 0 -1.21106685832227e-05 xy delta ${deltaxy} xz delta ${deltaxz} remap units box
change_box all x delta 0 -1.21106685832227e-05 xy delta -0 xz delta ${deltaxz} remap units box
change_box all x delta 0 -1.21106685832227e-05 xy delta -0 xz delta -0 remap units box
Changing box ...
  triclinic box = (0.00066570839 0.00066570839 0.00066570839) to (12.111322 12.111334 12.111334) with tilt (0 0 0)
  triclinic box = (0.00066570839 0.00066570839 0.00066570839) to (12.111322 12.111334 12.111334) with tilt (0 0 0)
  triclinic box = (0.00066570839 0.00066570839 0.00066570839) to (12.111322 12.111334 12.111334) with tilt (0 0 0)
if "${dir} == 2" then    "change_box all y delta 0 ${delta} yz delta ${deltayz} remap units box"
if "${dir} == 3" then    "change_box all z delta 0 ${delta} remap units box"
if "${dir} == 4" then    "change_box all yz delta ${delta} remap units box"
if "${dir} == 5" then    "change_box all xz delta ${delta} remap units box"
if "${dir} == 6" then    "change_box all xy delta ${delta} remap units box"

# Relax atoms positions

minimize ${etol} ${ftol} ${maxiter} ${maxeval}
minimize 0 ${ftol} ${maxiter} ${maxeval}
minimize 0 1e-10 ${maxiter} ${maxeval}
minimize 0 1e-10 100 ${maxeval}
minimize 0 1e-10 100 1000
Neighbor list info ...
  update: every = 1 steps, delay = 0 steps, check = yes
  max neighbors/atom: 2000, page size: 100000
  master list distance cutoff = 5.7908507
  ghost atom cutoff = 5.7908507
  1 neighbor lists, perpetual/occasional/extra = 1 0 0
  (1) pair eam/alloy, perpetual
      attributes: half, newton on
      pair build: half/nsq/newton
      stencil: none
      bin: none
Per MPI rank memory allocation (min/avg/max) = 4.44 | 4.44 | 4.44 Mbytes
   Step          Temp          PotEng         Press           Pxx            Pyy            Pzz            Pxy            Pxz            Pyz             Lx             Ly             Lz           Volume    
         4   0             -679.68137      1.5707273      2.3248581      1.1936505      1.1936732      8.6758226e-06  2.5119947e-06 -4.9044483e-06  12.110656      12.110669      12.110669      1776.2493    
         5   0             -679.68137      1.570684       2.3248172      1.1936189      1.1936159     -2.0419256e-07  4.5379368e-07 -7.0151627e-07  12.110656      12.110669      12.110669      1776.2493    
         6   0             -679.68137      1.5706844      2.3248149      1.1936192      1.1936192     -1.9404279e-07  2.6705391e-07 -5.9882563e-07  12.110656      12.110669      12.110669      1776.2493    
         7   0             -679.68137      1.5706839      2.3248145      1.1936186      1.1936186     -8.730391e-08   1.1317708e-07 -2.3112713e-07  12.110656      12.110669      12.110669      1776.2493    
         8   0             -679.68137      1.5706836      2.3248143      1.1936183      1.1936183     -3.6824134e-08  5.0733147e-08 -7.5328839e-08  12.110656      12.110669      12.110669      1776.2493    
         9   0             -679.68137      1.5706835      2.3248141      1.1936182      1.1936182     -1.3811543e-08  2.529909e-08  -2.2182324e-09  12.110656      12.110669      12.110669      1776.2493    
        10   0             -679.68137      1.5706834      2.3248141      1.1936181      1.1936181     -2.6340234e-09  4.7674245e-09 -1.43426e-09    12.110656      12.110669      12.110669      1776.2493    
        11   0             -679.68137      1.5706834      2.3248141      1.1936181      1.1936181     -1.4966666e-09  2.2218826e-09 -2.1672917e-09  12.110656      12.110669      12.110669      1776.2493    
        12   0             -679.68137      1.5706834      2.3248141      1.1936181      1.1936181     -3.205545e-10   4.9789489e-10 -9.0920458e-10  12.110656      12.110669      12.110669      1776.2493    
        13   0             -679.68137      1.5706834      2.3248141      1.1936181      1.1936181      4.0218303e-11  7.892522e-12  -2.0860012e-10  12.110656      12.110669      12.110669      1776.2493    
        14   0             -679.68137      1.5706834      2.3248141      1.1936181      1.1936181      6.1586409e-13  1.7117917e-12 -3.0082638e-11  12.110656      12.110669      12.110669      1776.2493    
        15   0             -679.68137      1.5706834      2.3248141      1.1936181      1.1936181      7.8570652e-12 -1.9528105e-11 -1.5120998e-11  12.110656      12.110669      12.110669      1776.2493    
        16   0             -679.68137      1.5706834      2.3248141      1.1936181      1.1936181      9.3250662e-12  7.1386631e-12 -1.0991713e-11  12.110656      12.110669      12.110669      1776.2493    
        17   0             -679.68137      1.5706834      2.3248141      1.1936181      1.1936181      4.0280054e-12 -3.4869178e-12  1.5364831e-11  12.110656      12.110669      12.110669      1776.2493    
        18   0             -679.68137      1.5706834      2.3248141      1.1936181      1.1936181     -5.5516395e-12  4.4441843e-12  2.0211051e-12  12.110656      12.110669      12.110669      1776.2493    
        19   0             -679.68137      1.5706834      2.3248141      1.1936181      1.1936181     -2.7354793e-12  1.7912899e-11 -1.3447548e-11  12.110656      12.110669      12.110669      1776.2493    
        20   0             -679.68137      1.5706834      2.3248141      1.1936181      1.1936181      5.8043112e-12 -9.2301011e-12  6.5616175e-12  12.110656      12.110669      12.110669      1776.2493    
        21   0             -679.68137      1.5706834      2.3248141      1.1936181      1.1936181      5.4547735e-12 -2.4550222e-11 -5.310098e-12   12.110656      12.110669      12.110669      1776.2493    
        22   0             -679.68137      1.5706834      2.3248141      1.1936181      1.1936181     -1.3330744e-11  7.4391871e-12 -6.7324959e-12  12.110656      12.110669      12.110669      1776.2493    
Loop time of 0.002836 on 1 procs for 18 steps with 128 atoms

0.0% CPU use with 1 MPI tasks x 1 OpenMP threads

Minimization stats:
  Stopping criterion = force tolerance
  Energy initial, next-to-last, final = 
      -679.68136610991  -679.681366146337  -679.681366146346
  Force two-norm initial, final = 0.00074028686 7.1732134e-11
  Force max component initial, final = 9.5061794e-05 9.1274349e-12
  Final line search alpha, max atom move = 1 9.1274349e-12
  Iterations, force evaluations = 18 36

MPI task timing breakdown:
Section |  min time  |  avg time  |  max time  |%varavg| %total
---------------------------------------------------------------
Pair    | 0.001712   | 0.001712   | 0.001712   |   0.0 | 60.37
Neigh   | 0          | 0          | 0          |   0.0 |  0.00
Comm    | 3.9e-05    | 3.9e-05    | 3.9e-05    |   0.0 |  1.38
Output  | 0.00098    | 0.00098    | 0.00098    |   0.0 | 34.56
Modify  | 0          | 0          | 0          |   0.0 |  0.00
Other   |            | 0.000105   |            |       |  3.70

Nlocal:            128 ave         128 max         128 min
Histogram: 1 0 0 0 0 0 0 0 0 0
Nghost:            727 ave         727 max         727 min
Histogram: 1 0 0 0 0 0 0 0 0 0
Neighs:           3712 ave        3712 max        3712 min
Histogram: 1 0 0 0 0 0 0 0 0 0

Total # of neighbors = 3712
Ave neighs/atom = 29
Neighbor list builds = 0
Dangerous builds = 0

# Obtain new stress tensor

variable tmp equal pxx
variable pxx1 equal ${tmp}
variable pxx1 equal 2.32481405016984
variable tmp equal pyy
variable pyy1 equal ${tmp}
variable pyy1 equal 1.1936180919367
variable tmp equal pzz
variable pzz1 equal ${tmp}
variable pzz1 equal 1.19361809193703
variable tmp equal pxy
variable pxy1 equal ${tmp}
variable pxy1 equal -1.33307437560355e-11
variable tmp equal pxz
variable pxz1 equal ${tmp}
variable pxz1 equal 7.43918713837949e-12
variable tmp equal pyz
variable pyz1 equal ${tmp}
variable pyz1 equal -6.73249592968589e-12

# Compute elastic constant from pressure tensor

variable C1neg equal ${d1}
variable C1neg equal 232.481404996371
variable C2neg equal ${d2}
variable C2neg equal 119.361809171554
variable C3neg equal ${d3}
variable C3neg equal 119.361809170691
variable C4neg equal ${d4}
variable C4neg equal -2.25502366051226e-09
variable C5neg equal ${d5}
variable C5neg equal 2.80434021165326e-09
variable C6neg equal ${d6}
variable C6neg equal -1.22542173355488e-09

# Reset box and simulation parameters

clear
OMP_NUM_THREADS environment is not set. Defaulting to 1 thread. (src/comm.cpp:98)
  using 1 OpenMP thread(s) per MPI task
Loaded 1 plugins from D:\Program Files (x86)\LAMMPS 64-bit 15Jun2023\plugins
box tilt large

The 'box' command has been removed and will be ignored

read_restart ../elastic_constant/restart.equil
Reading restart file ...
  restart file = 15 Jun 2023, LAMMPS = 15 Jun 2023
  restoring atom style atomic from restart
  triclinic box = (0.00066570839 0.00066570839 0.00066570839) to (12.111334 12.111334 12.111334) with tilt (0 0 0)
  1 by 1 by 1 MPI processor grid
  pair style eam/alloy stores no restart info
  128 atoms
  read_restart CPU = 0.001 seconds
include ../elastic_constant/potential.mod
# NOTE: This script can be modified for different pair styles
# See in.elastic for more info.

# Choose potential
pair_style	eam/alloy
pair_coeff * * ../V.eam.alloy V
Reading eam/alloy potential file ../V.eam.alloy with DATE: 2025-04-20

# Setup neighbor style
neighbor 1.0 nsq
neigh_modify once no every 1 delay 0 check yes

# Setup minimization style
min_style	     cg
min_modify	     dmax ${dmax} line quadratic
min_modify	     dmax 0.01 line quadratic

# Setup output
thermo		1
thermo_style custom step temp pe press pxx pyy pzz pxy pxz pyz lx ly lz vol
thermo_modify norm no

# Positive deformation

variable delta equal ${up}*${len0}
variable delta equal 1e-06*${len0}
variable delta equal 1e-06*12.1106685832227
variable deltaxy equal ${up}*xy
variable deltaxy equal 1e-06*xy
variable deltaxz equal ${up}*xz
variable deltaxz equal 1e-06*xz
variable deltayz equal ${up}*yz
variable deltayz equal 1e-06*yz
if "${dir} == 1" then    "change_box all x delta 0 ${delta} xy delta ${deltaxy} xz delta ${deltaxz} remap units box"
change_box all x delta 0 ${delta} xy delta ${deltaxy} xz delta ${deltaxz} remap units box
change_box all x delta 0 1.21106685832227e-05 xy delta ${deltaxy} xz delta ${deltaxz} remap units box
change_box all x delta 0 1.21106685832227e-05 xy delta 0 xz delta ${deltaxz} remap units box
change_box all x delta 0 1.21106685832227e-05 xy delta 0 xz delta 0 remap units box
Changing box ...
  triclinic box = (0.00066570839 0.00066570839 0.00066570839) to (12.111346 12.111334 12.111334) with tilt (0 0 0)
  triclinic box = (0.00066570839 0.00066570839 0.00066570839) to (12.111346 12.111334 12.111334) with tilt (0 0 0)
  triclinic box = (0.00066570839 0.00066570839 0.00066570839) to (12.111346 12.111334 12.111334) with tilt (0 0 0)
if "${dir} == 2" then    "change_box all y delta 0 ${delta} yz delta ${deltayz} remap units box"
if "${dir} == 3" then    "change_box all z delta 0 ${delta} remap units box"
if "${dir} == 4" then    "change_box all yz delta ${delta} remap units box"
if "${dir} == 5" then    "change_box all xz delta ${delta} remap units box"
if "${dir} == 6" then    "change_box all xy delta ${delta} remap units box"

# Relax atoms positions

minimize ${etol} ${ftol} ${maxiter} ${maxeval}
minimize 0 ${ftol} ${maxiter} ${maxeval}
minimize 0 1e-10 ${maxiter} ${maxeval}
minimize 0 1e-10 100 ${maxeval}
minimize 0 1e-10 100 1000
Neighbor list info ...
  update: every = 1 steps, delay = 0 steps, check = yes
  max neighbors/atom: 2000, page size: 100000
  master list distance cutoff = 5.7908507
  ghost atom cutoff = 5.7908507
  1 neighbor lists, perpetual/occasional/extra = 1 0 0
  (1) pair eam/alloy, perpetual
      attributes: half, newton on
      pair build: half/nsq/newton
      stencil: none
      bin: none
Per MPI rank memory allocation (min/avg/max) = 4.44 | 4.44 | 4.44 Mbytes
   Step          Temp          PotEng         Press           Pxx            Pyy            Pzz            Pxy            Pxz            Pyz             Lx             Ly             Lz           Volume    
         4   0             -679.68137     -1.570637      -2.3247802     -1.1935768     -1.1935541      8.6758273e-06  2.5119156e-06 -4.9044531e-06  12.110681      12.110669      12.110669      1776.2529    
         5   0             -679.68137     -1.5706803     -2.3248211     -1.1936084     -1.1936115     -2.041768e-07   4.5377979e-07 -7.0152338e-07  12.110681      12.110669      12.110669      1776.2529    
         6   0             -679.68137     -1.5706799     -2.3248234     -1.1936082     -1.1936081     -1.9403086e-07  2.6704412e-07 -5.9882412e-07  12.110681      12.110669      12.110669      1776.2529    
         7   0             -679.68137     -1.5706804     -2.3248238     -1.1936088     -1.1936087     -8.731233e-08   1.1317038e-07 -2.3113899e-07  12.110681      12.110669      12.110669      1776.2529    
         8   0             -679.68137     -1.5706807     -2.324824      -1.193609      -1.193609      -3.6806465e-08  5.0717137e-08 -7.5335579e-08  12.110681      12.110669      12.110669      1776.2529    
         9   0             -679.68137     -1.5706808     -2.3248242     -1.1936092     -1.1936091     -1.3828055e-08  2.5322943e-08 -2.2329135e-09  12.110681      12.110669      12.110669      1776.2529    
        10   0             -679.68137     -1.5706809     -2.3248242     -1.1936092     -1.1936092     -2.6180689e-09  4.7357767e-09 -1.4223264e-09  12.110681      12.110669      12.110669      1776.2529    
        11   0             -679.68137     -1.5706809     -2.3248242     -1.1936092     -1.1936092     -1.4844574e-09  2.2359359e-09 -2.1826953e-09  12.110681      12.110669      12.110669      1776.2529    
        12   0             -679.68137     -1.5706809     -2.3248242     -1.1936092     -1.1936092     -3.065111e-10   4.7413583e-10 -9.1308397e-10  12.110681      12.110669      12.110669      1776.2529    
        13   0             -679.68137     -1.5706809     -2.3248242     -1.1936092     -1.1936092      1.220005e-11   5.0721221e-12 -2.1435522e-10  12.110681      12.110669      12.110669      1776.2529    
        14   0             -679.68137     -1.5706809     -2.3248242     -1.1936092     -1.1936092      1.0664849e-11 -1.3691183e-11 -1.5693532e-11  12.110681      12.110669      12.110669      1776.2529    
        15   0             -679.68137     -1.5706809     -2.3248242     -1.1936092     -1.1936092     -8.5661414e-12  3.7710537e-12 -2.8859739e-12  12.110681      12.110669      12.110669      1776.2529    
        16   0             -679.68137     -1.5706809     -2.3248242     -1.1936092     -1.1936092      1.7269159e-12  9.2588588e-12 -2.6024301e-12  12.110681      12.110669      12.110669      1776.2529    
        17   0             -679.68137     -1.5706809     -2.3248242     -1.1936092     -1.1936092      3.0199223e-12 -1.8591815e-11  1.5255991e-12  12.110681      12.110669      12.110669      1776.2529    
        18   0             -679.68137     -1.5706809     -2.3248242     -1.1936092     -1.1936092     -2.6231259e-12 -4.0371901e-12  2.0179245e-11  12.110681      12.110669      12.110669      1776.2529    
        19   0             -679.68137     -1.5706809     -2.3248242     -1.1936092     -1.1936092      7.0481091e-12 -6.7836597e-12  6.3295495e-12  12.110681      12.110669      12.110669      1776.2529    
        20   0             -679.68137     -1.5706809     -2.3248242     -1.1936092     -1.1936092     -8.3783264e-13  8.6070257e-12 -1.3659112e-11  12.110681      12.110669      12.110669      1776.2529    
        21   0             -679.68137     -1.5706809     -2.3248242     -1.1936092     -1.1936092      1.1065239e-12 -5.2357389e-12 -1.3326494e-11  12.110681      12.110669      12.110669      1776.2529    
        22   0             -679.68137     -1.5706809     -2.3248242     -1.1936092     -1.1936092     -8.2401363e-12  8.5253548e-12 -6.014094e-12   12.110681      12.110669      12.110669      1776.2529    
Loop time of 0.002392 on 1 procs for 18 steps with 128 atoms

653.2% CPU use with 1 MPI tasks x 1 OpenMP threads

Minimization stats:
  Stopping criterion = force tolerance
  Energy initial, next-to-last, final = 
     -679.681366109909  -679.681366146337  -679.681366146338
  Force two-norm initial, final = 0.0007402839 7.5857877e-11
  Force max component initial, final = 9.5060754e-05 1.0875591e-11
  Final line search alpha, max atom move = 1 1.0875591e-11
  Iterations, force evaluations = 18 36

MPI task timing breakdown:
Section |  min time  |  avg time  |  max time  |%varavg| %total
---------------------------------------------------------------
Pair    | 0.001446   | 0.001446   | 0.001446   |   0.0 | 60.45
Neigh   | 0          | 0          | 0          |   0.0 |  0.00
Comm    | 5.5e-05    | 5.5e-05    | 5.5e-05    |   0.0 |  2.30
Output  | 0.000806   | 0.000806   | 0.000806   |   0.0 | 33.70
Modify  | 0          | 0          | 0          |   0.0 |  0.00
Other   |            | 8.5e-05    |            |       |  3.55

Nlocal:            128 ave         128 max         128 min
Histogram: 1 0 0 0 0 0 0 0 0 0
Nghost:            727 ave         727 max         727 min
Histogram: 1 0 0 0 0 0 0 0 0 0
Neighs:           3712 ave        3712 max        3712 min
Histogram: 1 0 0 0 0 0 0 0 0 0

Total # of neighbors = 3712
Ave neighs/atom = 29
Neighbor list builds = 0
Dangerous builds = 0

# Obtain new stress tensor

variable tmp equal pe
variable e1 equal ${tmp}
variable e1 equal -679.681366146338
variable tmp equal press
variable p1 equal ${tmp}
variable p1 equal -1.57068090293992
variable tmp equal pxx
variable pxx1 equal ${tmp}
variable pxx1 equal -2.32482424405009
variable tmp equal pyy
variable pyy1 equal ${tmp}
variable pyy1 equal -1.19360923238678
variable tmp equal pzz
variable pzz1 equal ${tmp}
variable pzz1 equal -1.1936092323829
variable tmp equal pxy
variable pxy1 equal ${tmp}
variable pxy1 equal -8.24013625878279e-12
variable tmp equal pxz
variable pxz1 equal ${tmp}
variable pxz1 equal 8.52535484214611e-12
variable tmp equal pyz
variable pyz1 equal ${tmp}
variable pyz1 equal -6.01409396442839e-12

# Compute elastic constant from pressure tensor

variable C1pos equal ${d1}
variable C1pos equal 232.482424425622
variable C2pos equal ${d2}
variable C2pos equal 119.360923260794
variable C3pos equal ${d3}
variable C3pos equal 119.360923261302
variable C4pos equal ${d4}
variable C4pos equal 2.18318346398651e-09
variable C5pos equal ${d5}
variable C5pos equal -2.91295698202992e-09
variable C6pos equal ${d6}
variable C6pos equal 7.16360983829605e-10

# Combine positive and negative

variable C1${dir} equal 0.5*(${C1neg}+${C1pos})
variable C11 equal 0.5*(${C1neg}+${C1pos})
variable C11 equal 0.5*(232.481404996371+${C1pos})
variable C11 equal 0.5*(232.481404996371+232.482424425622)
variable C2${dir} equal 0.5*(${C2neg}+${C2pos})
variable C21 equal 0.5*(${C2neg}+${C2pos})
variable C21 equal 0.5*(119.361809171554+${C2pos})
variable C21 equal 0.5*(119.361809171554+119.360923260794)
variable C3${dir} equal 0.5*(${C3neg}+${C3pos})
variable C31 equal 0.5*(${C3neg}+${C3pos})
variable C31 equal 0.5*(119.361809170691+${C3pos})
variable C31 equal 0.5*(119.361809170691+119.360923261302)
variable C4${dir} equal 0.5*(${C4neg}+${C4pos})
variable C41 equal 0.5*(${C4neg}+${C4pos})
variable C41 equal 0.5*(-2.25502366051226e-09+${C4pos})
variable C41 equal 0.5*(-2.25502366051226e-09+2.18318346398651e-09)
variable C5${dir} equal 0.5*(${C5neg}+${C5pos})
variable C51 equal 0.5*(${C5neg}+${C5pos})
variable C51 equal 0.5*(2.80434021165326e-09+${C5pos})
variable C51 equal 0.5*(2.80434021165326e-09+-2.91295698202992e-09)
variable C6${dir} equal 0.5*(${C6neg}+${C6pos})
variable C61 equal 0.5*(${C6neg}+${C6pos})
variable C61 equal 0.5*(-1.22542173355488e-09+${C6pos})
variable C61 equal 0.5*(-1.22542173355488e-09+7.16360983829605e-10)

# Delete dir to make sure it is not reused

variable dir delete

# uyy Perturbation

variable dir equal 2
include ../elastic_constant/displace.mod
# NOTE: This script should not need to be
# modified. See in.elastic for more info.
#
# Find which reference length to use

if "${dir} == 1" then    "variable len0 equal ${lx0}"
if "${dir} == 2" then    "variable len0 equal ${ly0}"
variable len0 equal ${ly0}
variable len0 equal 12.1106685832227
if "${dir} == 3" then    "variable len0 equal ${lz0}"
if "${dir} == 4" then    "variable len0 equal ${lz0}"
if "${dir} == 5" then    "variable len0 equal ${lz0}"
if "${dir} == 6" then    "variable len0 equal ${ly0}"

# Reset box and simulation parameters

clear
OMP_NUM_THREADS environment is not set. Defaulting to 1 thread. (src/comm.cpp:98)
  using 1 OpenMP thread(s) per MPI task
Loaded 1 plugins from D:\Program Files (x86)\LAMMPS 64-bit 15Jun2023\plugins
box tilt large

The 'box' command has been removed and will be ignored

read_restart ../elastic_constant/restart.equil
Reading restart file ...
  restart file = 15 Jun 2023, LAMMPS = 15 Jun 2023
  restoring atom style atomic from restart
  triclinic box = (0.00066570839 0.00066570839 0.00066570839) to (12.111334 12.111334 12.111334) with tilt (0 0 0)
  1 by 1 by 1 MPI processor grid
  pair style eam/alloy stores no restart info
  128 atoms
  read_restart CPU = 0.001 seconds
include ../elastic_constant/potential.mod
# NOTE: This script can be modified for different pair styles
# See in.elastic for more info.

# Choose potential
pair_style	eam/alloy
pair_coeff * * ../V.eam.alloy V
Reading eam/alloy potential file ../V.eam.alloy with DATE: 2025-04-20

# Setup neighbor style
neighbor 1.0 nsq
neigh_modify once no every 1 delay 0 check yes

# Setup minimization style
min_style	     cg
min_modify	     dmax ${dmax} line quadratic
min_modify	     dmax 0.01 line quadratic

# Setup output
thermo		1
thermo_style custom step temp pe press pxx pyy pzz pxy pxz pyz lx ly lz vol
thermo_modify norm no

# Negative deformation

variable delta equal -${up}*${len0}
variable delta equal -1e-06*${len0}
variable delta equal -1e-06*12.1106685832227
variable deltaxy equal -${up}*xy
variable deltaxy equal -1e-06*xy
variable deltaxz equal -${up}*xz
variable deltaxz equal -1e-06*xz
variable deltayz equal -${up}*yz
variable deltayz equal -1e-06*yz
if "${dir} == 1" then    "change_box all x delta 0 ${delta} xy delta ${deltaxy} xz delta ${deltaxz} remap units box"
if "${dir} == 2" then    "change_box all y delta 0 ${delta} yz delta ${deltayz} remap units box"
change_box all y delta 0 ${delta} yz delta ${deltayz} remap units box
change_box all y delta 0 -1.21106685832227e-05 yz delta ${deltayz} remap units box
change_box all y delta 0 -1.21106685832227e-05 yz delta -0 remap units box
Changing box ...
  triclinic box = (0.00066570839 0.00066570839 0.00066570839) to (12.111334 12.111322 12.111334) with tilt (0 0 0)
  triclinic box = (0.00066570839 0.00066570839 0.00066570839) to (12.111334 12.111322 12.111334) with tilt (0 0 0)
if "${dir} == 3" then    "change_box all z delta 0 ${delta} remap units box"
if "${dir} == 4" then    "change_box all yz delta ${delta} remap units box"
if "${dir} == 5" then    "change_box all xz delta ${delta} remap units box"
if "${dir} == 6" then    "change_box all xy delta ${delta} remap units box"

# Relax atoms positions

minimize ${etol} ${ftol} ${maxiter} ${maxeval}
minimize 0 ${ftol} ${maxiter} ${maxeval}
minimize 0 1e-10 ${maxiter} ${maxeval}
minimize 0 1e-10 100 ${maxeval}
minimize 0 1e-10 100 1000
Neighbor list info ...
  update: every = 1 steps, delay = 0 steps, check = yes
  max neighbors/atom: 2000, page size: 100000
  master list distance cutoff = 5.7908507
  ghost atom cutoff = 5.7908507
  1 neighbor lists, perpetual/occasional/extra = 1 0 0
  (1) pair eam/alloy, perpetual
      attributes: half, newton on
      pair build: half/nsq/newton
      stencil: none
      bin: none
Per MPI rank memory allocation (min/avg/max) = 4.44 | 4.44 | 4.44 Mbytes
   Step          Temp          PotEng         Press           Pxx            Pyy            Pzz            Pxy            Pxz            Pyz             Lx             Ly             Lz           Volume    
         4   0             -679.68137      1.5707273      1.1936621      2.3248465      1.1936732      8.6758615e-06  2.5119874e-06 -4.9044554e-06  12.110669      12.110656      12.110669      1776.2493    
         5   0             -679.68137      1.570684       1.1936212      2.3248149      1.1936159     -2.0418492e-07  4.5377848e-07 -7.0152183e-07  12.110669      12.110656      12.110669      1776.2493    
         6   0             -679.68137      1.5706844      1.193619       2.3248151      1.1936192     -1.9404139e-07  2.670533e-07  -5.9883238e-07  12.110669      12.110656      12.110669      1776.2493    
         7   0             -679.68137      1.5706839      1.1936185      2.3248145      1.1936186     -8.7298601e-08  1.1319153e-07 -2.3114497e-07  12.110669      12.110656      12.110669      1776.2493    
         8   0             -679.68137      1.5706836      1.1936183      2.3248143      1.1936183     -3.6811973e-08  5.0706275e-08 -7.5318189e-08  12.110669      12.110656      12.110669      1776.2493    
         9   0             -679.68137      1.5706835      1.1936182      2.3248141      1.1936182     -1.3851903e-08  2.5289452e-08 -2.2252094e-09  12.110669      12.110656      12.110669      1776.2493    
        10   0             -679.68137      1.5706834      1.1936181      2.3248141      1.1936181     -2.6243416e-09  4.7688624e-09 -1.433134e-09   12.110669      12.110656      12.110669      1776.2493    
        11   0             -679.68137      1.5706834      1.1936181      2.3248141      1.1936181     -1.4893649e-09  2.2418586e-09 -2.1567019e-09  12.110669      12.110656      12.110669      1776.2493    
        12   0             -679.68137      1.5706834      1.1936181      2.3248141      1.1936181     -3.2304956e-10  4.7614599e-10 -9.2109661e-10  12.110669      12.110656      12.110669      1776.2493    
        13   0             -679.68137      1.5706834      1.1936181      2.3248141      1.1936181      2.455524e-11   1.4384296e-11 -2.014038e-10   12.110669      12.110656      12.110669      1776.2493    
        14   0             -679.68137      1.5706834      1.1936181      2.3248141      1.1936181     -1.3378981e-11 -1.0632744e-11 -4.0941026e-12  12.110669      12.110656      12.110669      1776.2493    
        15   0             -679.68137      1.5706834      1.1936181      2.3248141      1.1936181     -1.3442291e-12  1.3170947e-11 -3.0588526e-11  12.110669      12.110656      12.110669      1776.2493    
        16   0             -679.68137      1.5706834      1.1936181      2.3248141      1.1936181      1.5437951e-11  8.175498e-12   5.5537115e-12  12.110669      12.110656      12.110669      1776.2493    
        17   0             -679.68137      1.5706834      1.1936181      2.3248141      1.1936181      7.6222288e-12  1.7035818e-11 -1.1814683e-11  12.110669      12.110656      12.110669      1776.2493    
        18   0             -679.68137      1.5706834      1.1936181      2.3248141      1.1936181     -1.704704e-11  -2.3632104e-12  1.4528965e-11  12.110669      12.110656      12.110669      1776.2493    
        19   0             -679.68137      1.5706834      1.1936181      2.3248141      1.1936181      8.3546524e-12 -8.5366122e-12 -7.638854e-12   12.110669      12.110656      12.110669      1776.2493    
        20   0             -679.68137      1.5706834      1.1936181      2.3248141      1.1936181     -9.4184787e-12 -2.2805797e-12  1.535103e-11   12.110669      12.110656      12.110669      1776.2493    
        21   0             -679.68137      1.5706834      1.1936181      2.3248141      1.1936181      5.3452676e-12  7.0510326e-12  1.7816522e-11  12.110669      12.110656      12.110669      1776.2493    
        22   0             -679.68137      1.5706834      1.1936181      2.3248141      1.1936181      7.3661037e-13  1.4878038e-11  9.0995998e-12  12.110669      12.110656      12.110669      1776.2493    
Loop time of 0.002484 on 1 procs for 18 steps with 128 atoms

0.0% CPU use with 1 MPI tasks x 1 OpenMP threads

Minimization stats:
  Stopping criterion = force tolerance
  Energy initial, next-to-last, final = 
     -679.681366109909  -679.681366146337  -679.681366146343
  Force two-norm initial, final = 0.00074028664 7.8548411e-11
  Force max component initial, final = 9.5061226e-05 1.105277e-11
  Final line search alpha, max atom move = 1 1.105277e-11
  Iterations, force evaluations = 18 36

MPI task timing breakdown:
Section |  min time  |  avg time  |  max time  |%varavg| %total
---------------------------------------------------------------
Pair    | 0.001522   | 0.001522   | 0.001522   |   0.0 | 61.27
Neigh   | 0          | 0          | 0          |   0.0 |  0.00
Comm    | 4.2e-05    | 4.2e-05    | 4.2e-05    |   0.0 |  1.69
Output  | 0.000828   | 0.000828   | 0.000828   |   0.0 | 33.33
Modify  | 0          | 0          | 0          |   0.0 |  0.00
Other   |            | 9.2e-05    |            |       |  3.70

Nlocal:            128 ave         128 max         128 min
Histogram: 1 0 0 0 0 0 0 0 0 0
Nghost:            727 ave         727 max         727 min
Histogram: 1 0 0 0 0 0 0 0 0 0
Neighs:           3712 ave        3712 max        3712 min
Histogram: 1 0 0 0 0 0 0 0 0 0

Total # of neighbors = 3712
Ave neighs/atom = 29
Neighbor list builds = 0
Dangerous builds = 0

# Obtain new stress tensor

variable tmp equal pxx
variable pxx1 equal ${tmp}
variable pxx1 equal 1.19361809189689
variable tmp equal pyy
variable pyy1 equal ${tmp}
variable pyy1 equal 2.32481405016593
variable tmp equal pzz
variable pzz1 equal ${tmp}
variable pzz1 equal 1.19361809191929
variable tmp equal pxy
variable pxy1 equal ${tmp}
variable pxy1 equal 7.36610370314035e-13
variable tmp equal pxz
variable pxz1 equal ${tmp}
variable pxz1 equal 1.48780381064037e-11
variable tmp equal pyz
variable pyz1 equal ${tmp}
variable pyz1 equal 9.09959975720727e-12

# Compute elastic constant from pressure tensor

variable C1neg equal ${d1}
variable C1neg equal 119.361809169076
variable C2neg equal ${d2}
variable C2neg equal 232.481404994477
variable C3neg equal ${d3}
variable C3neg equal 119.361809168917
variable C4neg equal ${d4}
variable C4neg equal -6.71814091822943e-10
variable C5neg equal ${d5}
variable C5neg equal 3.54822530845568e-09
variable C6neg equal ${d6}
variable C6neg equal 1.81313679080078e-10

# Reset box and simulation parameters

clear
OMP_NUM_THREADS environment is not set. Defaulting to 1 thread. (src/comm.cpp:98)
  using 1 OpenMP thread(s) per MPI task
Loaded 1 plugins from D:\Program Files (x86)\LAMMPS 64-bit 15Jun2023\plugins
box tilt large

The 'box' command has been removed and will be ignored

read_restart ../elastic_constant/restart.equil
Reading restart file ...
  restart file = 15 Jun 2023, LAMMPS = 15 Jun 2023
  restoring atom style atomic from restart
  triclinic box = (0.00066570839 0.00066570839 0.00066570839) to (12.111334 12.111334 12.111334) with tilt (0 0 0)
  1 by 1 by 1 MPI processor grid
  pair style eam/alloy stores no restart info
  128 atoms
  read_restart CPU = 0.001 seconds
include ../elastic_constant/potential.mod
# NOTE: This script can be modified for different pair styles
# See in.elastic for more info.

# Choose potential
pair_style	eam/alloy
pair_coeff * * ../V.eam.alloy V
Reading eam/alloy potential file ../V.eam.alloy with DATE: 2025-04-20

# Setup neighbor style
neighbor 1.0 nsq
neigh_modify once no every 1 delay 0 check yes

# Setup minimization style
min_style	     cg
min_modify	     dmax ${dmax} line quadratic
min_modify	     dmax 0.01 line quadratic

# Setup output
thermo		1
thermo_style custom step temp pe press pxx pyy pzz pxy pxz pyz lx ly lz vol
thermo_modify norm no

# Positive deformation

variable delta equal ${up}*${len0}
variable delta equal 1e-06*${len0}
variable delta equal 1e-06*12.1106685832227
variable deltaxy equal ${up}*xy
variable deltaxy equal 1e-06*xy
variable deltaxz equal ${up}*xz
variable deltaxz equal 1e-06*xz
variable deltayz equal ${up}*yz
variable deltayz equal 1e-06*yz
if "${dir} == 1" then    "change_box all x delta 0 ${delta} xy delta ${deltaxy} xz delta ${deltaxz} remap units box"
if "${dir} == 2" then    "change_box all y delta 0 ${delta} yz delta ${deltayz} remap units box"
change_box all y delta 0 ${delta} yz delta ${deltayz} remap units box
change_box all y delta 0 1.21106685832227e-05 yz delta ${deltayz} remap units box
change_box all y delta 0 1.21106685832227e-05 yz delta 0 remap units box
Changing box ...
  triclinic box = (0.00066570839 0.00066570839 0.00066570839) to (12.111334 12.111346 12.111334) with tilt (0 0 0)
  triclinic box = (0.00066570839 0.00066570839 0.00066570839) to (12.111334 12.111346 12.111334) with tilt (0 0 0)
if "${dir} == 3" then    "change_box all z delta 0 ${delta} remap units box"
if "${dir} == 4" then    "change_box all yz delta ${delta} remap units box"
if "${dir} == 5" then    "change_box all xz delta ${delta} remap units box"
if "${dir} == 6" then    "change_box all xy delta ${delta} remap units box"

# Relax atoms positions

minimize ${etol} ${ftol} ${maxiter} ${maxeval}
minimize 0 ${ftol} ${maxiter} ${maxeval}
minimize 0 1e-10 ${maxiter} ${maxeval}
minimize 0 1e-10 100 ${maxeval}
minimize 0 1e-10 100 1000
Neighbor list info ...
  update: every = 1 steps, delay = 0 steps, check = yes
  max neighbors/atom: 2000, page size: 100000
  master list distance cutoff = 5.7908507
  ghost atom cutoff = 5.7908507
  1 neighbor lists, perpetual/occasional/extra = 1 0 0
  (1) pair eam/alloy, perpetual
      attributes: half, newton on
      pair build: half/nsq/newton
      stencil: none
      bin: none
Per MPI rank memory allocation (min/avg/max) = 4.44 | 4.44 | 4.44 Mbytes
   Step          Temp          PotEng         Press           Pxx            Pyy            Pzz            Pxy            Pxz            Pyz             Lx             Ly             Lz           Volume    
         4   0             -679.68137     -1.570637      -1.1935652     -2.3247918     -1.1935541      8.6758015e-06  2.5119491e-06 -4.9044278e-06  12.110669      12.110681      12.110669      1776.2529    
         5   0             -679.68137     -1.5706803     -1.1936061     -2.3248234     -1.1936115     -2.0418099e-07  4.5378548e-07 -7.015087e-07   12.110669      12.110681      12.110669      1776.2529    
         6   0             -679.68137     -1.5706799     -1.1936084     -2.3248232     -1.1936081     -1.9402781e-07  2.6705704e-07 -5.9883445e-07  12.110669      12.110681      12.110669      1776.2529    
         7   0             -679.68137     -1.5706804     -1.1936088     -2.3248238     -1.1936087     -8.730659e-08   1.1318419e-07 -2.3115322e-07  12.110669      12.110681      12.110669      1776.2529    
         8   0             -679.68137     -1.5706807     -1.193609      -2.324824      -1.193609      -3.6814902e-08  5.0722787e-08 -7.5317389e-08  12.110669      12.110681      12.110669      1776.2529    
         9   0             -679.68137     -1.5706808     -1.1936091     -2.3248242     -1.1936091     -1.3856043e-08  2.528987e-08  -2.2110024e-09  12.110669      12.110681      12.110669      1776.2529    
        10   0             -679.68137     -1.5706809     -1.1936092     -2.3248242     -1.1936092     -2.6258206e-09  4.766418e-09  -1.4372405e-09  12.110669      12.110681      12.110669      1776.2529    
        11   0             -679.68137     -1.5706809     -1.1936092     -2.3248242     -1.1936092     -1.501046e-09   2.241898e-09  -2.1768611e-09  12.110669      12.110681      12.110669      1776.2529    
        12   0             -679.68137     -1.5706809     -1.1936092     -2.3248242     -1.1936092     -3.0443185e-10  4.9958125e-10 -9.2182027e-10  12.110669      12.110681      12.110669      1776.2529    
        13   0             -679.68137     -1.5706809     -1.1936092     -2.3248242     -1.1936092      2.3379575e-11 -1.3401215e-11 -1.8801258e-10  12.110669      12.110681      12.110669      1776.2529    
        14   0             -679.68137     -1.5706809     -1.1936092     -2.3248242     -1.1936092     -2.3320947e-12 -2.2774212e-11 -2.2891041e-11  12.110669      12.110681      12.110669      1776.2529    
        15   0             -679.68137     -1.5706809     -1.1936092     -2.3248242     -1.1936092     -3.7520693e-12  1.3225527e-13  1.8945063e-11  12.110669      12.110681      12.110669      1776.2529    
        16   0             -679.68137     -1.5706809     -1.1936092     -2.3248242     -1.1936092     -4.8639475e-13  1.6196246e-11  6.2561911e-12  12.110669      12.110681      12.110669      1776.2529    
        17   0             -679.68137     -1.5706809     -1.1936092     -2.3248242     -1.1936092      2.3722211e-12  6.3673472e-12  1.317938e-12   12.110669      12.110681      12.110669      1776.2529    
        18   0             -679.68137     -1.5706809     -1.1936092     -2.3248242     -1.1936092      1.174204e-12   3.0396463e-12 -7.2396892e-12  12.110669      12.110681      12.110669      1776.2529    
        19   0             -679.68137     -1.5706809     -1.1936092     -2.3248242     -1.1936092      6.2842094e-12 -1.7062084e-11 -4.9262672e-12  12.110669      12.110681      12.110669      1776.2529    
        20   0             -679.68137     -1.5706809     -1.1936092     -2.3248242     -1.1936092      4.4150448e-12 -6.2030702e-12  6.9152854e-12  12.110669      12.110681      12.110669      1776.2529    
        21   0             -679.68137     -1.5706809     -1.1936092     -2.3248242     -1.1936092      3.2950802e-12  7.0510185e-12  1.257623e-11   12.110669      12.110681      12.110669      1776.2529    
        22   0             -679.68137     -1.5706809     -1.1936092     -2.3248242     -1.1936092     -1.1314909e-11 -3.177537e-12   2.0601976e-11  12.110669      12.110681      12.110669      1776.2529    
Loop time of 0.002769 on 1 procs for 18 steps with 128 atoms

0.0% CPU use with 1 MPI tasks x 1 OpenMP threads

Minimization stats:
  Stopping criterion = force tolerance
  Energy initial, next-to-last, final = 
      -679.68136610991  -679.681366146336  -679.681366146338
  Force two-norm initial, final = 0.00074028412 7.347284e-11
  Force max component initial, final = 9.5061322e-05 8.7807817e-12
  Final line search alpha, max atom move = 1 8.7807817e-12
  Iterations, force evaluations = 18 36

MPI task timing breakdown:
Section |  min time  |  avg time  |  max time  |%varavg| %total
---------------------------------------------------------------
Pair    | 0.001701   | 0.001701   | 0.001701   |   0.0 | 61.43
Neigh   | 0          | 0          | 0          |   0.0 |  0.00
Comm    | 4.6e-05    | 4.6e-05    | 4.6e-05    |   0.0 |  1.66
Output  | 0.000915   | 0.000915   | 0.000915   |   0.0 | 33.04
Modify  | 0          | 0          | 0          |   0.0 |  0.00
Other   |            | 0.000107   |            |       |  3.86

Nlocal:            128 ave         128 max         128 min
Histogram: 1 0 0 0 0 0 0 0 0 0
Nghost:            727 ave         727 max         727 min
Histogram: 1 0 0 0 0 0 0 0 0 0
Neighs:           3712 ave        3712 max        3712 min
Histogram: 1 0 0 0 0 0 0 0 0 0

Total # of neighbors = 3712
Ave neighs/atom = 29
Neighbor list builds = 0
Dangerous builds = 0

# Obtain new stress tensor

variable tmp equal pe
variable e1 equal ${tmp}
variable e1 equal -679.681366146338
variable tmp equal press
variable p1 equal ${tmp}
variable p1 equal -1.57068090296115
variable tmp equal pxx
variable pxx1 equal ${tmp}
variable pxx1 equal -1.19360923239301
variable tmp equal pyy
variable pyy1 equal ${tmp}
variable pyy1 equal -2.32482424405225
variable tmp equal pzz
variable pzz1 equal ${tmp}
variable pzz1 equal -1.19360923243819
variable tmp equal pxy
variable pxy1 equal ${tmp}
variable pxy1 equal -1.13149092077585e-11
variable tmp equal pxz
variable pxz1 equal ${tmp}
variable pxz1 equal -3.17753696496417e-12
variable tmp equal pyz
variable pyz1 equal ${tmp}
variable pyz1 equal 2.06019756540513e-11

# Compute elastic constant from pressure tensor

variable C1pos equal ${d1}
variable C1pos equal 119.360923259914
variable C2pos equal ${d2}
variable C2pos equal 232.482424427341
variable C3pos equal ${d3}
variable C3pos equal 119.360923266831
variable C4pos equal ${d4}
variable C4pos equal -4.7842349786146e-10
variable C5pos equal ${d5}
variable C5pos equal -1.74266780131889e-09
variable C6pos equal ${d6}
variable C6pos equal 1.02383827872718e-09

# Combine positive and negative

variable C1${dir} equal 0.5*(${C1neg}+${C1pos})
variable C12 equal 0.5*(${C1neg}+${C1pos})
variable C12 equal 0.5*(119.361809169076+${C1pos})
variable C12 equal 0.5*(119.361809169076+119.360923259914)
variable C2${dir} equal 0.5*(${C2neg}+${C2pos})
variable C22 equal 0.5*(${C2neg}+${C2pos})
variable C22 equal 0.5*(232.481404994477+${C2pos})
variable C22 equal 0.5*(232.481404994477+232.482424427341)
variable C3${dir} equal 0.5*(${C3neg}+${C3pos})
variable C32 equal 0.5*(${C3neg}+${C3pos})
variable C32 equal 0.5*(119.361809168917+${C3pos})
variable C32 equal 0.5*(119.361809168917+119.360923266831)
variable C4${dir} equal 0.5*(${C4neg}+${C4pos})
variable C42 equal 0.5*(${C4neg}+${C4pos})
variable C42 equal 0.5*(-6.71814091822943e-10+${C4pos})
variable C42 equal 0.5*(-6.71814091822943e-10+-4.7842349786146e-10)
variable C5${dir} equal 0.5*(${C5neg}+${C5pos})
variable C52 equal 0.5*(${C5neg}+${C5pos})
variable C52 equal 0.5*(3.54822530845568e-09+${C5pos})
variable C52 equal 0.5*(3.54822530845568e-09+-1.74266780131889e-09)
variable C6${dir} equal 0.5*(${C6neg}+${C6pos})
variable C62 equal 0.5*(${C6neg}+${C6pos})
variable C62 equal 0.5*(1.81313679080078e-10+${C6pos})
variable C62 equal 0.5*(1.81313679080078e-10+1.02383827872718e-09)

# Delete dir to make sure it is not reused

variable dir delete

# uzz Perturbation

variable dir equal 3
include ../elastic_constant/displace.mod
# NOTE: This script should not need to be
# modified. See in.elastic for more info.
#
# Find which reference length to use

if "${dir} == 1" then    "variable len0 equal ${lx0}"
if "${dir} == 2" then    "variable len0 equal ${ly0}"
if "${dir} == 3" then    "variable len0 equal ${lz0}"
variable len0 equal ${lz0}
variable len0 equal 12.1106685832227
if "${dir} == 4" then    "variable len0 equal ${lz0}"
if "${dir} == 5" then    "variable len0 equal ${lz0}"
if "${dir} == 6" then    "variable len0 equal ${ly0}"

# Reset box and simulation parameters

clear
OMP_NUM_THREADS environment is not set. Defaulting to 1 thread. (src/comm.cpp:98)
  using 1 OpenMP thread(s) per MPI task
Loaded 1 plugins from D:\Program Files (x86)\LAMMPS 64-bit 15Jun2023\plugins
box tilt large

The 'box' command has been removed and will be ignored

read_restart ../elastic_constant/restart.equil
Reading restart file ...
  restart file = 15 Jun 2023, LAMMPS = 15 Jun 2023
  restoring atom style atomic from restart
  triclinic box = (0.00066570839 0.00066570839 0.00066570839) to (12.111334 12.111334 12.111334) with tilt (0 0 0)
  1 by 1 by 1 MPI processor grid
  pair style eam/alloy stores no restart info
  128 atoms
  read_restart CPU = 0.001 seconds
include ../elastic_constant/potential.mod
# NOTE: This script can be modified for different pair styles
# See in.elastic for more info.

# Choose potential
pair_style	eam/alloy
pair_coeff * * ../V.eam.alloy V
Reading eam/alloy potential file ../V.eam.alloy with DATE: 2025-04-20

# Setup neighbor style
neighbor 1.0 nsq
neigh_modify once no every 1 delay 0 check yes

# Setup minimization style
min_style	     cg
min_modify	     dmax ${dmax} line quadratic
min_modify	     dmax 0.01 line quadratic

# Setup output
thermo		1
thermo_style custom step temp pe press pxx pyy pzz pxy pxz pyz lx ly lz vol
thermo_modify norm no

# Negative deformation

variable delta equal -${up}*${len0}
variable delta equal -1e-06*${len0}
variable delta equal -1e-06*12.1106685832227
variable deltaxy equal -${up}*xy
variable deltaxy equal -1e-06*xy
variable deltaxz equal -${up}*xz
variable deltaxz equal -1e-06*xz
variable deltayz equal -${up}*yz
variable deltayz equal -1e-06*yz
if "${dir} == 1" then    "change_box all x delta 0 ${delta} xy delta ${deltaxy} xz delta ${deltaxz} remap units box"
if "${dir} == 2" then    "change_box all y delta 0 ${delta} yz delta ${deltayz} remap units box"
if "${dir} == 3" then    "change_box all z delta 0 ${delta} remap units box"
change_box all z delta 0 ${delta} remap units box
change_box all z delta 0 -1.21106685832227e-05 remap units box
Changing box ...
  triclinic box = (0.00066570839 0.00066570839 0.00066570839) to (12.111334 12.111334 12.111322) with tilt (0 0 0)
if "${dir} == 4" then    "change_box all yz delta ${delta} remap units box"
if "${dir} == 5" then    "change_box all xz delta ${delta} remap units box"
if "${dir} == 6" then    "change_box all xy delta ${delta} remap units box"

# Relax atoms positions

minimize ${etol} ${ftol} ${maxiter} ${maxeval}
minimize 0 ${ftol} ${maxiter} ${maxeval}
minimize 0 1e-10 ${maxiter} ${maxeval}
minimize 0 1e-10 100 ${maxeval}
minimize 0 1e-10 100 1000
Neighbor list info ...
  update: every = 1 steps, delay = 0 steps, check = yes
  max neighbors/atom: 2000, page size: 100000
  master list distance cutoff = 5.7908507
  ghost atom cutoff = 5.7908507
  1 neighbor lists, perpetual/occasional/extra = 1 0 0
  (1) pair eam/alloy, perpetual
      attributes: half, newton on
      pair build: half/nsq/newton
      stencil: none
      bin: none
Per MPI rank memory allocation (min/avg/max) = 4.44 | 4.44 | 4.44 Mbytes
   Step          Temp          PotEng         Press           Pxx            Pyy            Pzz            Pxy            Pxz            Pyz             Lx             Ly             Lz           Volume    
         4   0             -679.68137      1.5707273      1.1936621      1.1936505      2.3248692      8.6758707e-06  2.5119554e-06 -4.9044573e-06  12.110669      12.110669      12.110656      1776.2493    
         5   0             -679.68137      1.570684       1.1936212      1.1936189      2.3248118     -2.042078e-07   4.5377665e-07 -7.0152427e-07  12.110669      12.110669      12.110656      1776.2493    
         6   0             -679.68137      1.5706844      1.193619       1.1936192      2.3248151     -1.9405194e-07  2.6702955e-07 -5.9883175e-07  12.110669      12.110669      12.110656      1776.2493    
         7   0             -679.68137      1.5706839      1.1936185      1.1936186      2.3248146     -8.7314035e-08  1.131987e-07  -2.3114044e-07  12.110669      12.110669      12.110656      1776.2493    
         8   0             -679.68137      1.5706836      1.1936183      1.1936183      2.3248143     -3.6826402e-08  5.0726744e-08 -7.532267e-08   12.110669      12.110669      12.110656      1776.2493    
         9   0             -679.68137      1.5706835      1.1936182      1.1936182      2.3248141     -1.3827839e-08  2.5306126e-08 -2.236386e-09   12.110669      12.110669      12.110656      1776.2493    
        10   0             -679.68137      1.5706834      1.1936181      1.1936181      2.3248141     -2.6324051e-09  4.7483033e-09 -1.4513392e-09  12.110669      12.110669      12.110656      1776.2493    
        11   0             -679.68137      1.5706834      1.1936181      1.1936181      2.3248141     -1.49633e-09    2.2265297e-09 -2.1774014e-09  12.110669      12.110669      12.110656      1776.2493    
        12   0             -679.68137      1.5706834      1.1936181      1.1936181      2.3248141     -3.0709836e-10  4.9678041e-10 -9.1423744e-10  12.110669      12.110669      12.110656      1776.2493    
        13   0             -679.68137      1.5706834      1.1936181      1.1936181      2.3248141      2.0133029e-11 -1.1570757e-11 -2.0457152e-10  12.110669      12.110669      12.110656      1776.2493    
        14   0             -679.68137      1.5706834      1.1936181      1.1936181      2.3248141     -2.8247967e-12 -1.0136068e-11 -2.6718141e-11  12.110669      12.110669      12.110656      1776.2493    
        15   0             -679.68137      1.5706834      1.1936181      1.1936181      2.3248141     -1.1482766e-11 -9.9257659e-13  1.0488051e-11  12.110669      12.110669      12.110656      1776.2493    
        16   0             -679.68137      1.5706834      1.1936181      1.1936181      2.3248141      3.0116769e-12 -1.6619792e-11 -4.309545e-12   12.110669      12.110669      12.110656      1776.2493    
        17   0             -679.68137      1.5706834      1.1936181      1.1936181      2.3248141      2.5005268e-12  9.5035359e-12 -7.9061155e-14  12.110669      12.110669      12.110656      1776.2493    
        18   0             -679.68137      1.5706834      1.1936181      1.1936181      2.3248141      1.5073378e-11  3.697605e-12   2.8447958e-12  12.110669      12.110669      12.110656      1776.2493    
        19   0             -679.68137      1.5706834      1.1936181      1.1936181      2.3248141     -3.9017215e-12 -8.8620679e-12  9.4484468e-12  12.110669      12.110669      12.110656      1776.2493    
        20   0             -679.68137      1.5706834      1.1936181      1.1936181      2.3248141      6.8756067e-12  6.1310138e-12 -7.5896325e-12  12.110669      12.110669      12.110656      1776.2493    
        21   0             -679.68137      1.5706834      1.1936181      1.1936181      2.3248141     -8.6715388e-12  1.5738518e-11 -4.4578695e-12  12.110669      12.110669      12.110656      1776.2493    
        22   0             -679.68137      1.5706834      1.1936181      1.1936181      2.3248141      4.505624e-12  -4.9162775e-12  1.1028888e-11  12.110669      12.110669      12.110656      1776.2493    
Loop time of 0.002596 on 1 procs for 18 steps with 128 atoms

0.0% CPU use with 1 MPI tasks x 1 OpenMP threads

Minimization stats:
  Stopping criterion = force tolerance
  Energy initial, next-to-last, final = 
     -679.681366109906  -679.681366146336  -679.681366146342
  Force two-norm initial, final = 0.00074028723 5.5855584e-11
  Force max component initial, final = 9.5061785e-05 9.954666e-12
  Final line search alpha, max atom move = 1 9.954666e-12
  Iterations, force evaluations = 18 36

MPI task timing breakdown:
Section |  min time  |  avg time  |  max time  |%varavg| %total
---------------------------------------------------------------
Pair    | 0.001563   | 0.001563   | 0.001563   |   0.0 | 60.21
Neigh   | 0          | 0          | 0          |   0.0 |  0.00
Comm    | 4.6e-05    | 4.6e-05    | 4.6e-05    |   0.0 |  1.77
Output  | 0.000888   | 0.000888   | 0.000888   |   0.0 | 34.21
Modify  | 0          | 0          | 0          |   0.0 |  0.00
Other   |            | 9.9e-05    |            |       |  3.81

Nlocal:            128 ave         128 max         128 min
Histogram: 1 0 0 0 0 0 0 0 0 0
Nghost:            727 ave         727 max         727 min
Histogram: 1 0 0 0 0 0 0 0 0 0
Neighs:           3712 ave        3712 max        3712 min
Histogram: 1 0 0 0 0 0 0 0 0 0

Total # of neighbors = 3712
Ave neighs/atom = 29
Neighbor list builds = 0
Dangerous builds = 0

# Obtain new stress tensor

variable tmp equal pxx
variable pxx1 equal ${tmp}
variable pxx1 equal 1.19361809190895
variable tmp equal pyy
variable pyy1 equal ${tmp}
variable pyy1 equal 1.19361809191074
variable tmp equal pzz
variable pzz1 equal ${tmp}
variable pzz1 equal 2.32481405017442
variable tmp equal pxy
variable pxy1 equal ${tmp}
variable pxy1 equal 4.50562403782494e-12
variable tmp equal pxz
variable pxz1 equal ${tmp}
variable pxz1 equal -4.91627751946555e-12
variable tmp equal pyz
variable pyz1 equal ${tmp}
variable pyz1 equal 1.10288875383809e-11

# Compute elastic constant from pressure tensor

variable C1neg equal ${d1}
variable C1neg equal 119.361809170282
variable C2neg equal ${d2}
variable C2neg equal 119.361809168958
variable C3neg equal ${d3}
variable C3neg equal 232.48140499443
variable C4neg equal ${d4}
variable C4neg equal -4.7888531370558e-10
variable C5neg equal ${d5}
variable C5neg equal 1.56879374586875e-09
variable C6neg equal ${d6}
variable C6neg equal 5.58215045831168e-10

# Reset box and simulation parameters

clear
OMP_NUM_THREADS environment is not set. Defaulting to 1 thread. (src/comm.cpp:98)
  using 1 OpenMP thread(s) per MPI task
Loaded 1 plugins from D:\Program Files (x86)\LAMMPS 64-bit 15Jun2023\plugins
box tilt large

The 'box' command has been removed and will be ignored

read_restart ../elastic_constant/restart.equil
Reading restart file ...
  restart file = 15 Jun 2023, LAMMPS = 15 Jun 2023
  restoring atom style atomic from restart
  triclinic box = (0.00066570839 0.00066570839 0.00066570839) to (12.111334 12.111334 12.111334) with tilt (0 0 0)
  1 by 1 by 1 MPI processor grid
  pair style eam/alloy stores no restart info
  128 atoms
  read_restart CPU = 0.001 seconds
include ../elastic_constant/potential.mod
# NOTE: This script can be modified for different pair styles
# See in.elastic for more info.

# Choose potential
pair_style	eam/alloy
pair_coeff * * ../V.eam.alloy V
Reading eam/alloy potential file ../V.eam.alloy with DATE: 2025-04-20

# Setup neighbor style
neighbor 1.0 nsq
neigh_modify once no every 1 delay 0 check yes

# Setup minimization style
min_style	     cg
min_modify	     dmax ${dmax} line quadratic
min_modify	     dmax 0.01 line quadratic

# Setup output
thermo		1
thermo_style custom step temp pe press pxx pyy pzz pxy pxz pyz lx ly lz vol
thermo_modify norm no

# Positive deformation

variable delta equal ${up}*${len0}
variable delta equal 1e-06*${len0}
variable delta equal 1e-06*12.1106685832227
variable deltaxy equal ${up}*xy
variable deltaxy equal 1e-06*xy
variable deltaxz equal ${up}*xz
variable deltaxz equal 1e-06*xz
variable deltayz equal ${up}*yz
variable deltayz equal 1e-06*yz
if "${dir} == 1" then    "change_box all x delta 0 ${delta} xy delta ${deltaxy} xz delta ${deltaxz} remap units box"
if "${dir} == 2" then    "change_box all y delta 0 ${delta} yz delta ${deltayz} remap units box"
if "${dir} == 3" then    "change_box all z delta 0 ${delta} remap units box"
change_box all z delta 0 ${delta} remap units box
change_box all z delta 0 1.21106685832227e-05 remap units box
Changing box ...
  triclinic box = (0.00066570839 0.00066570839 0.00066570839) to (12.111334 12.111334 12.111346) with tilt (0 0 0)
if "${dir} == 4" then    "change_box all yz delta ${delta} remap units box"
if "${dir} == 5" then    "change_box all xz delta ${delta} remap units box"
if "${dir} == 6" then    "change_box all xy delta ${delta} remap units box"

# Relax atoms positions

minimize ${etol} ${ftol} ${maxiter} ${maxeval}
minimize 0 ${ftol} ${maxiter} ${maxeval}
minimize 0 1e-10 ${maxiter} ${maxeval}
minimize 0 1e-10 100 ${maxeval}
minimize 0 1e-10 100 1000
Neighbor list info ...
  update: every = 1 steps, delay = 0 steps, check = yes
  max neighbors/atom: 2000, page size: 100000
  master list distance cutoff = 5.7908507
  ghost atom cutoff = 5.7908507
  1 neighbor lists, perpetual/occasional/extra = 1 0 0
  (1) pair eam/alloy, perpetual
      attributes: half, newton on
      pair build: half/nsq/newton
      stencil: none
      bin: none
Per MPI rank memory allocation (min/avg/max) = 4.44 | 4.44 | 4.44 Mbytes
   Step          Temp          PotEng         Press           Pxx            Pyy            Pzz            Pxy            Pxz            Pyz             Lx             Ly             Lz           Volume    
         4   0             -679.68137     -1.570637      -1.1935652     -1.1935768     -2.3247691      8.6758001e-06  2.5119543e-06 -4.9044294e-06  12.110669      12.110669      12.110681      1776.2529    
         5   0             -679.68137     -1.5706803     -1.1936061     -1.1936084     -2.3248265     -2.0418803e-07  4.5377439e-07 -7.0152642e-07  12.110669      12.110669      12.110681      1776.2529    
         6   0             -679.68137     -1.5706799     -1.1936084     -1.1936082     -2.3248232     -1.9401642e-07  2.6704952e-07 -5.9883724e-07  12.110669      12.110669      12.110681      1776.2529    
         7   0             -679.68137     -1.5706804     -1.1936088     -1.1936088     -2.3248237     -8.7297872e-08  1.1318911e-07 -2.3115232e-07  12.110669      12.110669      12.110681      1776.2529    
         8   0             -679.68137     -1.5706807     -1.193609      -1.193609      -2.324824      -3.6821088e-08  5.0725136e-08 -7.5332928e-08  12.110669      12.110669      12.110681      1776.2529    
         9   0             -679.68137     -1.5706808     -1.1936091     -1.1936092     -2.3248242     -1.3832668e-08  2.5312728e-08 -2.2120893e-09  12.110669      12.110669      12.110681      1776.2529    
        10   0             -679.68137     -1.5706809     -1.1936092     -1.1936092     -2.3248242     -2.6345614e-09  4.756203e-09  -1.4356704e-09  12.110669      12.110669      12.110681      1776.2529    
        11   0             -679.68137     -1.5706809     -1.1936092     -1.1936092     -2.3248242     -1.4899276e-09  2.2409015e-09 -2.1467897e-09  12.110669      12.110669      12.110681      1776.2529    
        12   0             -679.68137     -1.5706809     -1.1936092     -1.1936092     -2.3248242     -3.1417129e-10  4.794754e-10  -9.1691396e-10  12.110669      12.110669      12.110681      1776.2529    
        13   0             -679.68137     -1.5706809     -1.1936092     -1.1936092     -2.3248242      2.0898086e-11  1.466899e-11  -2.0648778e-10  12.110669      12.110669      12.110681      1776.2529    
        14   0             -679.68137     -1.5706809     -1.1936092     -1.1936092     -2.3248242     -6.4815532e-12 -2.460847e-11  -2.0844042e-11  12.110669      12.110669      12.110681      1776.2529    
        15   0             -679.68137     -1.5706809     -1.1936092     -1.1936092     -2.3248242     -9.9609277e-12 -9.819003e-12  -6.6469548e-12  12.110669      12.110669      12.110681      1776.2529    
        16   0             -679.68137     -1.5706809     -1.1936092     -1.1936092     -2.3248242      4.9500191e-12  5.2672227e-12 -7.4293317e-12  12.110669      12.110669      12.110681      1776.2529    
        17   0             -679.68137     -1.5706809     -1.1936092     -1.1936092     -2.3248242      4.3645277e-12  3.0034451e-11 -2.3531157e-11  12.110669      12.110669      12.110681      1776.2529    
        18   0             -679.68137     -1.5706809     -1.1936092     -1.1936092     -2.3248242      9.2708631e-12  7.5732795e-12  1.1153927e-12  12.110669      12.110669      12.110681      1776.2529    
        19   0             -679.68137     -1.5706809     -1.1936092     -1.1936092     -2.3248242      3.6061961e-12  1.4969367e-11  1.1689011e-11  12.110669      12.110669      12.110681      1776.2529    
        20   0             -679.68137     -1.5706809     -1.1936092     -1.1936092     -2.3248242     -7.4323816e-12  2.6471223e-13 -1.6224392e-11  12.110669      12.110669      12.110681      1776.2529    
        21   0             -679.68137     -1.5706809     -1.1936092     -1.1936092     -2.3248242      4.0345435e-12 -1.3578761e-11 -7.0829852e-12  12.110669      12.110669      12.110681      1776.2529    
        22   0             -679.68137     -1.5706809     -1.1936092     -1.1936092     -2.3248242     -3.1888323e-12  2.0898386e-12 -5.2808101e-12  12.110669      12.110669      12.110681      1776.2529    
Loop time of 0.003346 on 1 procs for 18 steps with 128 atoms

0.0% CPU use with 1 MPI tasks x 1 OpenMP threads

Minimization stats:
  Stopping criterion = force tolerance
  Energy initial, next-to-last, final = 
      -679.68136610991  -679.681366146335  -679.681366146337
  Force two-norm initial, final = 0.00074028354 5.8332325e-11
  Force max component initial, final = 9.5060763e-05 8.3560381e-12
  Final line search alpha, max atom move = 1 8.3560381e-12
  Iterations, force evaluations = 18 36

MPI task timing breakdown:
Section |  min time  |  avg time  |  max time  |%varavg| %total
---------------------------------------------------------------
Pair    | 0.002019   | 0.002019   | 0.002019   |   0.0 | 60.34
Neigh   | 0          | 0          | 0          |   0.0 |  0.00
Comm    | 5.5e-05    | 5.5e-05    | 5.5e-05    |   0.0 |  1.64
Output  | 0.001114   | 0.001114   | 0.001114   |   0.0 | 33.29
Modify  | 0          | 0          | 0          |   0.0 |  0.00
Other   |            | 0.000158   |            |       |  4.72

Nlocal:            128 ave         128 max         128 min
Histogram: 1 0 0 0 0 0 0 0 0 0
Nghost:            727 ave         727 max         727 min
Histogram: 1 0 0 0 0 0 0 0 0 0
Neighs:           3712 ave        3712 max        3712 min
Histogram: 1 0 0 0 0 0 0 0 0 0

Total # of neighbors = 3712
Ave neighs/atom = 29
Neighbor list builds = 0
Dangerous builds = 0

# Obtain new stress tensor

variable tmp equal pe
variable e1 equal ${tmp}
variable e1 equal -679.681366146337
variable tmp equal press
variable p1 equal ${tmp}
variable p1 equal -1.5706809029278
variable tmp equal pxx
variable pxx1 equal ${tmp}
variable pxx1 equal -1.19360923237235
variable tmp equal pyy
variable pyy1 equal ${tmp}
variable pyy1 equal -1.19360923238001
variable tmp equal pzz
variable pzz1 equal ${tmp}
variable pzz1 equal -2.32482424403105
variable tmp equal pxy
variable pxy1 equal ${tmp}
variable pxy1 equal -3.18883226631115e-12
variable tmp equal pxz
variable pxz1 equal ${tmp}
variable pxz1 equal 2.08983856317687e-12
variable tmp equal pyz
variable pyz1 equal ${tmp}
variable pyz1 equal -5.28081009110676e-12

# Compute elastic constant from pressure tensor

variable C1pos equal ${d1}
variable C1pos equal 119.360923257848
variable C2pos equal ${d2}
variable C2pos equal 119.360923260117
variable C3pos equal ${d3}
variable C3pos equal 232.482424426117
variable C4pos equal ${d4}
variable C4pos equal 2.10985507665435e-09
variable C5pos equal ${d5}
variable C5pos equal -2.269405354133e-09
variable C6pos equal ${d6}
variable C6pos equal 2.11230584582441e-10

# Combine positive and negative

variable C1${dir} equal 0.5*(${C1neg}+${C1pos})
variable C13 equal 0.5*(${C1neg}+${C1pos})
variable C13 equal 0.5*(119.361809170282+${C1pos})
variable C13 equal 0.5*(119.361809170282+119.360923257848)
variable C2${dir} equal 0.5*(${C2neg}+${C2pos})
variable C23 equal 0.5*(${C2neg}+${C2pos})
variable C23 equal 0.5*(119.361809168958+${C2pos})
variable C23 equal 0.5*(119.361809168958+119.360923260117)
variable C3${dir} equal 0.5*(${C3neg}+${C3pos})
variable C33 equal 0.5*(${C3neg}+${C3pos})
variable C33 equal 0.5*(232.48140499443+${C3pos})
variable C33 equal 0.5*(232.48140499443+232.482424426117)
variable C4${dir} equal 0.5*(${C4neg}+${C4pos})
variable C43 equal 0.5*(${C4neg}+${C4pos})
variable C43 equal 0.5*(-4.7888531370558e-10+${C4pos})
variable C43 equal 0.5*(-4.7888531370558e-10+2.10985507665435e-09)
variable C5${dir} equal 0.5*(${C5neg}+${C5pos})
variable C53 equal 0.5*(${C5neg}+${C5pos})
variable C53 equal 0.5*(1.56879374586875e-09+${C5pos})
variable C53 equal 0.5*(1.56879374586875e-09+-2.269405354133e-09)
variable C6${dir} equal 0.5*(${C6neg}+${C6pos})
variable C63 equal 0.5*(${C6neg}+${C6pos})
variable C63 equal 0.5*(5.58215045831168e-10+${C6pos})
variable C63 equal 0.5*(5.58215045831168e-10+2.11230584582441e-10)

# Delete dir to make sure it is not reused

variable dir delete

# uyz Perturbation

variable dir equal 4
include ../elastic_constant/displace.mod
# NOTE: This script should not need to be
# modified. See in.elastic for more info.
#
# Find which reference length to use

if "${dir} == 1" then    "variable len0 equal ${lx0}"
if "${dir} == 2" then    "variable len0 equal ${ly0}"
if "${dir} == 3" then    "variable len0 equal ${lz0}"
if "${dir} == 4" then    "variable len0 equal ${lz0}"
variable len0 equal ${lz0}
variable len0 equal 12.1106685832227
if "${dir} == 5" then    "variable len0 equal ${lz0}"
if "${dir} == 6" then    "variable len0 equal ${ly0}"

# Reset box and simulation parameters

clear
OMP_NUM_THREADS environment is not set. Defaulting to 1 thread. (src/comm.cpp:98)
  using 1 OpenMP thread(s) per MPI task
Loaded 1 plugins from D:\Program Files (x86)\LAMMPS 64-bit 15Jun2023\plugins
box tilt large

The 'box' command has been removed and will be ignored

read_restart ../elastic_constant/restart.equil
Reading restart file ...
  restart file = 15 Jun 2023, LAMMPS = 15 Jun 2023
  restoring atom style atomic from restart
  triclinic box = (0.00066570839 0.00066570839 0.00066570839) to (12.111334 12.111334 12.111334) with tilt (0 0 0)
  1 by 1 by 1 MPI processor grid
  pair style eam/alloy stores no restart info
  128 atoms
  read_restart CPU = 0.002 seconds
include ../elastic_constant/potential.mod
# NOTE: This script can be modified for different pair styles
# See in.elastic for more info.

# Choose potential
pair_style	eam/alloy
pair_coeff * * ../V.eam.alloy V
Reading eam/alloy potential file ../V.eam.alloy with DATE: 2025-04-20

# Setup neighbor style
neighbor 1.0 nsq
neigh_modify once no every 1 delay 0 check yes

# Setup minimization style
min_style	     cg
min_modify	     dmax ${dmax} line quadratic
min_modify	     dmax 0.01 line quadratic

# Setup output
thermo		1
thermo_style custom step temp pe press pxx pyy pzz pxy pxz pyz lx ly lz vol
thermo_modify norm no

# Negative deformation

variable delta equal -${up}*${len0}
variable delta equal -1e-06*${len0}
[...]
variable tmp equal pyz
variable pyz1 equal ${tmp}
variable pyz1 equal -9.65939930998509e-12

# Compute elastic constant from pressure tensor

variable C1neg equal ${d1}
variable C1neg equal 3.69641746118987e-05
variable C2neg equal ${d2}
variable C2neg equal 7.23379145113472e-05
variable C3neg equal ${d3}
variable C3neg equal 0.000168335749743635
variable C4neg equal ${d4}
variable C4neg equal -2.54771399854218e-09
variable C5neg equal ${d5}
variable C5neg equal 1.47141372879557e-09
variable C6neg equal ${d6}
variable C6neg equal 45.9652753002589

# Reset box and simulation parameters

clear
OMP_NUM_THREADS environment is not set. Defaulting to 1 thread. (src/comm.cpp:98)
  using 1 OpenMP thread(s) per MPI task
Loaded 1 plugins from D:\Program Files (x86)\LAMMPS 64-bit 15Jun2023\plugins
box tilt large

The 'box' command has been removed and will be ignored

read_restart ../elastic_constant/restart.equil
Reading restart file ...
  restart file = 15 Jun 2023, LAMMPS = 15 Jun 2023
  restoring atom style atomic from restart
  triclinic box = (0.00066570839 0.00066570839 0.00066570839) to (12.111334 12.111334 12.111334) with tilt (0 0 0)
  1 by 1 by 1 MPI processor grid
  pair style eam/alloy stores no restart info
  128 atoms
  read_restart CPU = 0.001 seconds
include ../elastic_constant/potential.mod
# NOTE: This script can be modified for different pair styles
# See in.elastic for more info.

# Choose potential
pair_style	eam/alloy
pair_coeff * * ../V.eam.alloy V
Reading eam/alloy potential file ../V.eam.alloy with DATE: 2025-04-20

# Setup neighbor style
neighbor 1.0 nsq
neigh_modify once no every 1 delay 0 check yes

# Setup minimization style
min_style	     cg
min_modify	     dmax ${dmax} line quadratic
min_modify	     dmax 0.01 line quadratic

# Setup output
thermo		1
thermo_style custom step temp pe press pxx pyy pzz pxy pxz pyz lx ly lz vol
thermo_modify norm no

# Positive deformation

variable delta equal ${up}*${len0}
variable delta equal 1e-06*${len0}
variable delta equal 1e-06*12.1106685832227
variable deltaxy equal ${up}*xy
variable deltaxy equal 1e-06*xy
variable deltaxz equal ${up}*xz
variable deltaxz equal 1e-06*xz
variable deltayz equal ${up}*yz
variable deltayz equal 1e-06*yz
if "${dir} == 1" then    "change_box all x delta 0 ${delta} xy delta ${deltaxy} xz delta ${deltaxz} remap units box"
if "${dir} == 2" then    "change_box all y delta 0 ${delta} yz delta ${deltayz} remap units box"
if "${dir} == 3" then    "change_box all z delta 0 ${delta} remap units box"
if "${dir} == 4" then    "change_box all yz delta ${delta} remap units box"
if "${dir} == 5" then    "change_box all xz delta ${delta} remap units box"
if "${dir} == 6" then    "change_box all xy delta ${delta} remap units box"
change_box all xy delta ${delta} remap units box
change_box all xy delta 1.21106685832227e-05 remap units box
Changing box ...
  triclinic box = (0.00066570839 0.00066570839 0.00066570839) to (12.111334 12.111334 12.111334) with tilt (1.2110669e-05 0 0)

# Relax atoms positions

minimize ${etol} ${ftol} ${maxiter} ${maxeval}
minimize 0 ${ftol} ${maxiter} ${maxeval}
minimize 0 1e-10 ${maxiter} ${maxeval}
minimize 0 1e-10 100 ${maxeval}
minimize 0 1e-10 100 1000
Neighbor list info ...
  update: every = 1 steps, delay = 0 steps, check = yes
  max neighbors/atom: 2000, page size: 100000
  master list distance cutoff = 5.7908507
  ghost atom cutoff = 5.7908507
  1 neighbor lists, perpetual/occasional/extra = 1 0 0
  (1) pair eam/alloy, perpetual
      attributes: half, newton on
      pair build: half/nsq/newton
      stencil: none
      bin: none
Per MPI rank memory allocation (min/avg/max) = 4.44 | 4.44 | 4.44 Mbytes
   Step          Temp          PotEng         Press           Pxx            Pyy            Pzz            Pxy            Pxz            Pyz             Lx             Ly             Lz           Volume    
         4   0             -679.68137      4.4802554e-05  4.4420214e-05  3.3176303e-05  5.6811146e-05 -0.45964408     2.5119679e-06 -4.9044556e-06  12.110669      12.110669      12.110669      1776.2511    
         5   0             -679.68137      1.5135995e-06  3.5093009e-06  1.5767737e-06 -5.45276e-07   -0.45965296     4.5376636e-07 -7.0152766e-07  12.110669      12.110669      12.110669      1776.2511    
         6   0             -679.68137      1.9335095e-06  1.2326828e-06  1.7944464e-06  2.7733994e-06 -0.45965295     2.6705385e-07 -5.9881287e-07  12.110669      12.110669      12.110669      1776.2511    
         7   0             -679.68137      1.3870116e-06  7.7075157e-07  1.1872666e-06  2.2030168e-06 -0.45965284     1.1318282e-07 -2.3114766e-07  12.110669      12.110669      12.110669      1776.2511    
         8   0             -679.68137      1.1450564e-06  5.9092503e-07  9.3105847e-07  1.9131856e-06 -0.45965279     5.0711754e-08 -7.532646e-08   12.110669      12.110669      12.110669      1776.2511    
         9   0             -679.68137      1.0094973e-06  4.5911166e-07  7.9897522e-07  1.7704052e-06 -0.45965277     2.5298364e-08 -2.225073e-09   12.110669      12.110669      12.110669      1776.2511    
        10   0             -679.68137      9.407247e-07   3.8801744e-07  7.332313e-07   1.7009254e-06 -0.45965276     4.7397634e-09 -1.4400914e-09  12.110669      12.110669      12.110669      1776.2511    
        11   0             -679.68137      9.3207937e-07  3.7673966e-07  7.2864286e-07  1.6908556e-06 -0.45965275     2.2376217e-09 -2.1622176e-09  12.110669      12.110669      12.110669      1776.2511    
        12   0             -679.68137      9.2781671e-07  3.7177524e-07  7.2595735e-07  1.6857176e-06 -0.45965275     5.0823957e-10 -9.1421948e-10  12.110669      12.110669      12.110669      1776.2511    
        13   0             -679.68137      9.2599565e-07  3.7016845e-07  7.2390078e-07  1.6839177e-06 -0.45965275    -2.0853066e-11 -1.9262733e-10  12.110669      12.110669      12.110669      1776.2511    
        14   0             -679.68137      9.2565282e-07  3.6983765e-07  7.2352713e-07  1.6835937e-06 -0.45965275    -1.9236535e-11 -2.2172032e-11  12.110669      12.110669      12.110669      1776.2511    
        15   0             -679.68137      9.2565832e-07  3.6985419e-07  7.2353889e-07  1.6835819e-06 -0.45965275    -4.2021619e-12 -8.9215183e-12  12.110669      12.110669      12.110669      1776.2511    
        16   0             -679.68137      9.2566146e-07  3.6986018e-07  7.2355615e-07  1.6835681e-06 -0.45965275     1.5455618e-11  1.0993658e-11  12.110669      12.110669      12.110669      1776.2511    
        17   0             -679.68137      9.2564442e-07  3.6983011e-07  7.2353443e-07  1.6835687e-06 -0.45965275     1.0411149e-11 -9.7985615e-12  12.110669      12.110669      12.110669      1776.2511    
        18   0             -679.68137      9.2564161e-07  3.6983621e-07  7.2353647e-07  1.6835522e-06 -0.45965275     8.6010016e-12  1.361895e-11   12.110669      12.110669      12.110669      1776.2511    
        19   0             -679.68137      9.2566026e-07  3.6985788e-07  7.2355076e-07  1.6835721e-06 -0.45965275    -2.1166487e-13 -1.2182349e-11  12.110669      12.110669      12.110669      1776.2511    
        20   0             -679.68137      9.2567992e-07  3.6985602e-07  7.2360408e-07  1.6835797e-06 -0.45965275    -4.27681e-12   -4.2520251e-12  12.110669      12.110669      12.110669      1776.2511    
        21   0             -679.68137      9.2567176e-07  3.6984851e-07  7.2358113e-07  1.6835856e-06 -0.45965275    -1.9235037e-13  7.2278388e-13  12.110669      12.110669      12.110669      1776.2511    
        22   0             -679.68137      9.257065e-07   3.6989519e-07  7.2360671e-07  1.6836176e-06 -0.45965275    -7.8508107e-12  1.6550597e-11  12.110669      12.110669      12.110669      1776.2511    
Loop time of 0.002395 on 1 procs for 18 steps with 128 atoms

0.0% CPU use with 1 MPI tasks x 1 OpenMP threads

Minimization stats:
  Stopping criterion = force tolerance
  Energy initial, next-to-last, final = 
     -679.681366110943  -679.681366147368   -679.68136614737
  Force two-norm initial, final = 0.00074028515 5.9185798e-11
  Force max component initial, final = 9.5061351e-05 9.7711284e-12
  Final line search alpha, max atom move = 1 9.7711284e-12
  Iterations, force evaluations = 18 36

MPI task timing breakdown:
Section |  min time  |  avg time  |  max time  |%varavg| %total
---------------------------------------------------------------
Pair    | 0.001446   | 0.001446   | 0.001446   |   0.0 | 60.38
Neigh   | 0          | 0          | 0          |   0.0 |  0.00
Comm    | 5.2e-05    | 5.2e-05    | 5.2e-05    |   0.0 |  2.17
Output  | 0.000807   | 0.000807   | 0.000807   |   0.0 | 33.70
Modify  | 0          | 0          | 0          |   0.0 |  0.00
Other   |            | 9e-05      |            |       |  3.76

Nlocal:            128 ave         128 max         128 min
Histogram: 1 0 0 0 0 0 0 0 0 0
Nghost:            727 ave         727 max         727 min
Histogram: 1 0 0 0 0 0 0 0 0 0
Neighs:           3712 ave        3712 max        3712 min
Histogram: 1 0 0 0 0 0 0 0 0 0

Total # of neighbors = 3712
Ave neighs/atom = 29
Neighbor list builds = 0
Dangerous builds = 0

# Obtain new stress tensor

variable tmp equal pe
variable e1 equal ${tmp}
variable e1 equal -679.68136614737
variable tmp equal press
variable p1 equal ${tmp}
variable p1 equal 9.25706504646639e-07
variable tmp equal pxx
variable pxx1 equal ${tmp}
variable pxx1 equal 3.69895190570205e-07
variable tmp equal pyy
variable pyy1 equal ${tmp}
variable pyy1 equal 7.23606707926601e-07
variable tmp equal pzz
variable pzz1 equal ${tmp}
variable pzz1 equal 1.68361761544311e-06
variable tmp equal pxy
variable pxy1 equal ${tmp}
variable pxy1 equal -0.45965275298464
variable tmp equal pxz
variable pxz1 equal ${tmp}
variable pxz1 equal -7.850810719326e-12
variable tmp equal pyz
variable pyz1 equal ${tmp}
variable pyz1 equal 1.65505974292906e-11

# Compute elastic constant from pressure tensor

variable C1pos equal ${d1}
variable C1pos equal -3.69689056102024e-05
variable C2pos equal ${d2}
variable C2pos equal -7.23385549030092e-05
variable C3pos equal ${d3}
variable C3pos equal -0.000168338749383826
variable C4pos equal ${d4}
variable C4pos equal -7.32856753853902e-11
variable C5pos equal ${d5}
variable C5pos equal -1.27534042588271e-09
variable C6pos equal ${d6}
variable C6pos equal 45.9652752983563

# Combine positive and negative

variable C1${dir} equal 0.5*(${C1neg}+${C1pos})
variable C16 equal 0.5*(${C1neg}+${C1pos})
variable C16 equal 0.5*(3.69641746118987e-05+${C1pos})
variable C16 equal 0.5*(3.69641746118987e-05+-3.69689056102024e-05)
variable C2${dir} equal 0.5*(${C2neg}+${C2pos})
variable C26 equal 0.5*(${C2neg}+${C2pos})
variable C26 equal 0.5*(7.23379145113472e-05+${C2pos})
variable C26 equal 0.5*(7.23379145113472e-05+-7.23385549030092e-05)
variable C3${dir} equal 0.5*(${C3neg}+${C3pos})
variable C36 equal 0.5*(${C3neg}+${C3pos})
variable C36 equal 0.5*(0.000168335749743635+${C3pos})
variable C36 equal 0.5*(0.000168335749743635+-0.000168338749383826)
variable C4${dir} equal 0.5*(${C4neg}+${C4pos})
variable C46 equal 0.5*(${C4neg}+${C4pos})
variable C46 equal 0.5*(-2.54771399854218e-09+${C4pos})
variable C46 equal 0.5*(-2.54771399854218e-09+-7.32856753853902e-11)
variable C5${dir} equal 0.5*(${C5neg}+${C5pos})
variable C56 equal 0.5*(${C5neg}+${C5pos})
variable C56 equal 0.5*(1.47141372879557e-09+${C5pos})
variable C56 equal 0.5*(1.47141372879557e-09+-1.27534042588271e-09)
variable C6${dir} equal 0.5*(${C6neg}+${C6pos})
variable C66 equal 0.5*(${C6neg}+${C6pos})
variable C66 equal 0.5*(45.9652753002589+${C6pos})
variable C66 equal 0.5*(45.9652753002589+45.9652752983563)

# Delete dir to make sure it is not reused

variable dir delete

# Output final values

variable C11all equal ${C11}
variable C11all equal 232.481914710997
variable C22all equal ${C22}
variable C22all equal 232.481914710909
variable C33all equal ${C33}
variable C33all equal 232.481914710273

variable C12all equal 0.5*(${C12}+${C21})
variable C12all equal 0.5*(119.361366214495+${C21})
variable C12all equal 0.5*(119.361366214495+119.361366216174)
variable C13all equal 0.5*(${C13}+${C31})
variable C13all equal 0.5*(119.361366214065+${C31})
variable C13all equal 0.5*(119.361366214065+119.361366215996)
variable C23all equal 0.5*(${C23}+${C32})
variable C23all equal 0.5*(119.361366214537+${C32})
variable C23all equal 0.5*(119.361366214537+119.361366217874)

variable C44all equal ${C44}
variable C44all equal 45.9652752984575
variable C55all equal ${C55}
variable C55all equal 45.9652752994403
variable C66all equal ${C66}
variable C66all equal 45.9652752993076

variable C14all equal 0.5*(${C14}+${C41})
variable C14all equal 0.5*(1.16854318400945e-09+${C41})
variable C14all equal 0.5*(1.16854318400945e-09+-3.59200982628749e-11)
variable C15all equal 0.5*(${C15}+${C51})
variable C15all equal 0.5*(-1.90489763385023e-09+${C51})
variable C15all equal 0.5*(-1.90489763385023e-09+-5.43083851883299e-11)
variable C16all equal 0.5*(${C16}+${C61})
variable C16all equal 0.5*(-2.36549915184979e-09+${C61})
variable C16all equal 0.5*(-2.36549915184979e-09+-2.54530374862637e-10)

variable C24all equal 0.5*(${C24}+${C42})
variable C24all equal 0.5*(-6.49807173100061e-10+${C42})
variable C24all equal 0.5*(-6.49807173100061e-10+-5.75118794842202e-10)
variable C25all equal 0.5*(${C25}+${C52})
variable C25all equal 0.5*(-3.0939774439974e-09+${C52})
variable C25all equal 0.5*(-3.0939774439974e-09+9.02778753568395e-10)
variable C26all equal 0.5*(${C26}+${C62})
variable C26all equal 0.5*(-3.20195830997249e-10+${C62})
variable C26all equal 0.5*(-3.20195830997249e-10+6.02575978903629e-10)

variable C34all equal 0.5*(${C34}+${C43})
variable C34all equal 0.5*(7.11167675448857e-10+${C43})
variable C34all equal 0.5*(7.11167675448857e-10+8.15484881474385e-10)
variable C35all equal 0.5*(${C35}+${C53})
variable C35all equal 0.5*(-3.48535635975086e-09+${C53})
variable C35all equal 0.5*(-3.48535635975086e-09+-3.50305804132125e-10)
variable C36all equal 0.5*(${C36}+${C63})
variable C36all equal 0.5*(-1.49982009549755e-09+${C63})
variable C36all equal 0.5*(-1.49982009549755e-09+3.84722815206805e-10)

variable C45all equal 0.5*(${C45}+${C54})
variable C45all equal 0.5*(-3.0171259215615e-11+${C54})
variable C45all equal 0.5*(-3.0171259215615e-11+-7.01999096581075e-10)
variable C46all equal 0.5*(${C46}+${C64})
variable C46all equal 0.5*(-1.31049983696379e-09+${C64})
variable C46all equal 0.5*(-1.31049983696379e-09+-8.51354240719243e-10)
variable C56all equal 0.5*(${C56}+${C65})
variable C56all equal 0.5*(9.803665145643e-11+${C65})
variable C56all equal 0.5*(9.803665145643e-11+-1.61250886995496e-09)

# Average moduli for cubic crystals

variable C11cubic equal (${C11all}+${C22all}+${C33all})/3.0
variable C11cubic equal (232.481914710997+${C22all}+${C33all})/3.0
variable C11cubic equal (232.481914710997+232.481914710909+${C33all})/3.0
variable C11cubic equal (232.481914710997+232.481914710909+232.481914710273)/3.0
variable C12cubic equal (${C12all}+${C13all}+${C23all})/3.0
variable C12cubic equal (119.361366215334+${C13all}+${C23all})/3.0
variable C12cubic equal (119.361366215334+119.361366215031+${C23all})/3.0
variable C12cubic equal (119.361366215334+119.361366215031+119.361366216205)/3.0
variable C44cubic equal (${C44all}+${C55all}+${C66all})/3.0
variable C44cubic equal (45.9652752984575+${C55all}+${C66all})/3.0
variable C44cubic equal (45.9652752984575+45.9652752994403+${C66all})/3.0
variable C44cubic equal (45.9652752984575+45.9652752994403+45.9652752993076)/3.0

variable bulkmodulus equal (${C11cubic}+2*${C12cubic})/3.0
variable bulkmodulus equal (232.481914710726+2*${C12cubic})/3.0
variable bulkmodulus equal (232.481914710726+2*119.361366215523)/3.0
variable shearmodulus1 equal ${C44cubic}
variable shearmodulus1 equal 45.9652752990685
variable shearmodulus2 equal (${C11cubic}-${C12cubic})/2.0
variable shearmodulus2 equal (232.481914710726-${C12cubic})/2.0
variable shearmodulus2 equal (232.481914710726-119.361366215523)/2.0
variable poissonratio equal 1.0/(1.0+${C11cubic}/${C12cubic})
variable poissonratio equal 1.0/(1.0+232.481914710726/${C12cubic})
variable poissonratio equal 1.0/(1.0+232.481914710726/119.361366215523)

# For Stillinger-Weber silicon, the analytical results
# are known to be (E. R. Cowley, 1988):
#               C11 = 151.4 GPa
#               C12 = 76.4 GPa
#               C44 = 56.4 GPa

print "========================================="
=========================================
print "Components of the Elastic Constant Tensor"
Components of the Elastic Constant Tensor
print "========================================="
=========================================

print "Elastic Constant C11all = ${C11all} ${cunits}"
Elastic Constant C11all = 232.481914710997 GPa
print "Elastic Constant C22all = ${C22all} ${cunits}"
Elastic Constant C22all = 232.481914710909 GPa
print "Elastic Constant C33all = ${C33all} ${cunits}"
Elastic Constant C33all = 232.481914710273 GPa

print "Elastic Constant C12all = ${C12all} ${cunits}"
Elastic Constant C12all = 119.361366215334 GPa
print "Elastic Constant C13all = ${C13all} ${cunits}"
Elastic Constant C13all = 119.361366215031 GPa
print "Elastic Constant C23all = ${C23all} ${cunits}"
Elastic Constant C23all = 119.361366216205 GPa

print "Elastic Constant C44all = ${C44all} ${cunits}"
Elastic Constant C44all = 45.9652752984575 GPa
print "Elastic Constant C55all = ${C55all} ${cunits}"
Elastic Constant C55all = 45.9652752994403 GPa
print "Elastic Constant C66all = ${C66all} ${cunits}"
Elastic Constant C66all = 45.9652752993076 GPa

print "Elastic Constant C14all = ${C14all} ${cunits}"
Elastic Constant C14all = 5.66311542873288e-10 GPa
print "Elastic Constant C15all = ${C15all} ${cunits}"
Elastic Constant C15all = -9.7960300951928e-10 GPa
print "Elastic Constant C16all = ${C16all} ${cunits}"
Elastic Constant C16all = -1.31001476335621e-09 GPa

print "Elastic Constant C24all = ${C24all} ${cunits}"
Elastic Constant C24all = -6.12462983971132e-10 GPa
print "Elastic Constant C25all = ${C25all} ${cunits}"
Elastic Constant C25all = -1.0955993452145e-09 GPa
print "Elastic Constant C26all = ${C26all} ${cunits}"
Elastic Constant C26all = 1.4119007395319e-10 GPa

print "Elastic Constant C34all = ${C34all} ${cunits}"
Elastic Constant C34all = 7.63326278461621e-10 GPa
print "Elastic Constant C35all = ${C35all} ${cunits}"
Elastic Constant C35all = -1.91783108194149e-09 GPa
print "Elastic Constant C36all = ${C36all} ${cunits}"
Elastic Constant C36all = -5.57548640145372e-10 GPa

print "Elastic Constant C45all = ${C45all} ${cunits}"
Elastic Constant C45all = -3.66085177898345e-10 GPa
print "Elastic Constant C46all = ${C46all} ${cunits}"
Elastic Constant C46all = -1.08092703884152e-09 GPa
print "Elastic Constant C56all = ${C56all} ${cunits}"
Elastic Constant C56all = -7.57236109249265e-10 GPa

print "========================================="
=========================================
print "Average properties for a cubic crystal"
Average properties for a cubic crystal
print "========================================="
=========================================

print "Bulk Modulus = ${bulkmodulus} ${cunits}"
Bulk Modulus = 157.068215713924 GPa
print "Shear Modulus 1 = ${shearmodulus1} ${cunits}"
Shear Modulus 1 = 45.9652752990685 GPa
print "Shear Modulus 2 = ${shearmodulus2} ${cunits}"
Shear Modulus 2 = 56.5602742476015 GPa
print "Poisson Ratio = ${poissonratio}"
Poisson Ratio = 0.339245830988436
Total wall time: 0:00:00
